Executable      : siesta
Version         : 5.4.2
Architecture    : x86_64
Compiler version: GNU-15.2.0
Compiler flags  : -fallow-argument-mismatch -O3 -march=native
Parallelisations: MPI

Runtime information:
* Directory : /work
* Running on 4 nodes in parallel.
>> Start of run:   8-JUL-2026  14:58:44

                           *********************** 
                           *  WELCOME TO SIESTA  * 
                           *********************** 

 NOTE: Siesta V5 introduces some new defaults for basis-set generation
 NOTE: which might lead to slightly different numerical results.
 NOTE: Please see the manual for full details and compatibility measures.


reinit: Reading from standard input
reinit: Dumping input in INPUT_TMP.67860
************************** Dump of input data file ****************************
#--------------------------------------------------
# FDF for water
#--------------------------------------------------
#(1) General system descriptors
SystemName            H2O           # Descriptive name of the system
SystemLabel           H2O           # Short name for naming files
%include STRUCT.fdf
%include KPT.fdf
%include BASIS.fdf
#(2) DFT, Grid, SCF
XC.functional         LDA           # LDA or GGA (default = LDA)
XC.authors            CA            # CA (Ceperley-Aldr) = PZ
                                    #    (Perdew-Zunger) - LDA - Default
                                    # PW92 (Perdew-Wang-92) - LDA
                                    # PBE (Perdew-Burke-Ernzerhof) - GGA
MeshCutoff            500.000000    Ry      # Default: 50.0 Ry ~ 0.444 Bohr
                                    #         100.0 Ry ~ 0.314 Bohr
MaxSCFIterations      500           # Default: 50
DM.MixingWeight       0.05          # Default: 0.25
DM.NumberPulay        10            # Default: 0
DM.PulayOnFile        F             # SystemLabel.P1, SystemLabel.P2
SCF.Mixer.Method      Pulay
SCF.Converge.DM          true         # Default: T
SCF.Tolerance.DM         1.d-4        # Default: 1.d-4
SCF.Converge.H           true         # Default: T
SCF.Tolerance.H          1.d-3  eV    # Default: 1.d-3 eV
DM.UseSaveDM          .true.        # because of the bug
SCFMustConverge       .true.
NeglNonOverlapInt     F             # Default: F
#(3) Eigenvalue problem: order-N or diagonalization
SolutionMethod        Diagon        # or Transiesta
ElectronicTemperature 300.0 K       # Default: 300.0 K
#(4) Molecular dynamics and relaxations
MD.TypeOfRun          CG            # Type of dynamics:
MD.VariableCell       F
MD.NumCGsteps         300           # 0 for single-point / 100 for gopt
MD.MaxCGDispl         0.2 Bohr      # Default: 0.2 Bohr
MD.MaxForceTol        0.02 eV/Ang   # Default: 0.04 eV/Ang
#(10) Output options
WriteEigenvalues      T      # SystemLabel.out [otherwise ~.EIG]
AllocReportLevel      0      # SystemLabel.alloc, Default: 0
WriteHirshfeldPop     T
SaveHS                T      # SystemLabel.HS
SaveRho               T      # SystemLabel.RHO, rho2xsf(3D),macroave-charge dendity(1D)
SaveDeltaRho          T      # SystemLabel.DRHO
SaveElectrostaticPotential T # SystemLabel.VH , macroave-potential
SaveTotalPotential    T      # SystemLabel.VT
WriteMDXmol           T      # SystemLabel.ANI, optimization
WriteCoorXmol        .true.  # SystemLavel.xyz
WriteCoorStep        .true.  # SystemLabel.XV , rho2xsf
************************** End of input data file *****************************

reinit: -----------------------------------------------------------------------
reinit: System Name: H2O
reinit: -----------------------------------------------------------------------
reinit: System Label: H2O
reinit: -----------------------------------------------------------------------

initatom: Reading input for the pseudopotentials and atomic orbitals ----------
Species number:   1 Atomic number:    8 Label: O
Species number:   2 Atomic number:    1 Label: H

Ground state valence configuration (from tables):   2s02  2p04  3d00  4f00
Ground state valence configuration (from tables):   1s01  2p00  3d00  4f00

---- Processing specs for species: O
Reading pseudopotential information in formatted form from:
  O.psf

---- Processing specs for species: H
Reading pseudopotential information in formatted form from:
  H.psf

---- Pseudopotential check for O 

Pseudopotential generated from a fully relativistic atomic calculation
There are spin-orbit semi-local pseudopotentials available

Pseudized shells:
2s( 2.00) rc: 1.34
2p( 4.00) rc: 1.45
3d( 0.00) rc: 1.34
4f( 0.00) rc: 1.34
Valence configuration for ps generation: (assumed as above)

---- Pseudopotential check for  H

Pseudized shells:
1s( 1.00) rc: 1.31
2p( 0.00) rc: 1.31
3d( 0.00) rc: 0.37
4f( 0.00) rc: 1.31
Valence configuration for ps generation: (assumed as above)
For O, standard SIESTA heuristics set lmxkb to 3
 (one more than the basis l, including polarization orbitals).
Use PS.lmax or PS.KBprojectors blocks to override.
For H, standard SIESTA heuristics set lmxkb to 2
 (one more than the basis l, including polarization orbitals).
Use PS.lmax or PS.KBprojectors blocks to override.

<basis_specs>
===============================================================================
O                    Z=   8    Mass=  15.999        Charge= 0.17977+309
Lmxo=2 Lmxkb= 3    BasisType=split      Semic=F
L=0  Nsemic=0  Cnfigmx=2
          i=1  nzeta=2  polorb=0  (2s)
            splnorm:   0.15000    
               vcte:    40.000    
               rinn:  -0.90000    
               qcoe:    0.0000    
               qyuk:    0.0000    
               qwid:   0.10000E-01
                rcs:    0.0000      0.0000    
            lambdas:    1.0000      1.0000    
L=1  Nsemic=0  Cnfigmx=2
          i=1  nzeta=2  polorb=1  (2p)  (to be polarized perturbatively)
            splnorm:   0.15000    
               vcte:    40.000    
               rinn:  -0.90000    
               qcoe:    0.0000    
               qyuk:    0.0000    
               qwid:   0.10000E-01
                rcs:    0.0000      0.0000    
            lambdas:    1.0000      1.0000    
L=2  Nsemic=0  Cnfigmx=3
          i=1  nzeta=0  polorb=0  (3d)  (perturbative polarization orbital) (from 2p)
-------------------------------------------------------------------------------
L=0  Nkbl=1  erefs: 0.17977+309
L=1  Nkbl=1  erefs: 0.17977+309
L=2  Nkbl=1  erefs: 0.17977+309
L=3  Nkbl=1  erefs: 0.17977+309
===============================================================================
</basis_specs>

Using PAO.SplitTailNorm
atom: Called for O                     (Z =   8)
Maximum radius (at nrval) set to   50.00000 8518

read_vps: Pseudopotential generation method:
read_vps: ATM4.2.7  Troullier-Martins                       
Valence charge in pseudo generation:    6.00000

xc_check: Exchange-correlation functional:
xc_check: Ceperley-Alder
V l=0 = -2*Zval/r beyond r=  1.3329
V l=1 = -2*Zval/r beyond r=  1.4389
V l=2 = -2*Zval/r beyond r=  1.3316
V l=3 = -2*Zval/r beyond r=  1.3302
All V_l potentials equal beyond r=  1.4389
This should be close to max(r_c) in ps generation
All pots = -2*Zval/r beyond r=  1.4389
Using small-core scheme (local charge) for Vlocal

VLOCAL_FROM_CHLOCAL: 99.0% of the norm of Vloc inside     20.964 Ry
VLOCAL_FROM_CHLOCAL: 99.9% of the norm of Vloc inside     47.778 Ry
atom: Maximum radius for chlocal:    1.73164
atom: Maximum radius for r*vlocal+2*Zval:    1.58972

KBgen: Kleinman-Bylander projectors: 
GHOST: No ghost state for L =  0
   l= 0   rc=  1.633503   el= -1.744571   Ekb=  5.837623   kbcos=  0.252332
GHOST: No ghost state for L =  1
   l= 1   rc=  1.604184   el= -0.676113   Ekb= -7.240554   kbcos= -0.494496
GHOST: No ghost state for L =  2
   l= 2   rc=  1.912891   el=  0.013307   Ekb= -2.060708   kbcos= -0.006132
GHOST: No ghost state for L =  3
   l= 3   rc=  2.208497   el=  0.019584   Ekb= -0.889020   kbcos= -0.000785

KBgen: Total number of Kleinman-Bylander projectors:  16
atom: -------------------------------------------------------------------------

atom: SANKEY-TYPE ORBITALS:
atom: Selected multiple-zeta basis: split     

SPLIT: Orbitals with angular momentum L= 0

SPLIT: Basis orbitals for state 2s

SPLIT: PAO cut-off radius determined from an
SPLIT: energy shift=  0.007350 Ry
Split based on tail norm

   izeta = 1
                 lambda =    1.000000
                     rc =    3.684443
                 energy =   -1.736394
                kinetic =    1.547476
    potential(screened) =   -3.283871
       potential(ionic) =  -11.215354

   izeta = 2
                 rmatch =    2.348038
              splitnorm =    0.150000
                 energy =   -1.353417
                kinetic =    2.621227
    potential(screened) =   -3.974644
       potential(ionic) =  -12.659617

SPLIT: Orbitals with angular momentum L= 1

SPLIT: Basis orbitals for state 2p

SPLIT: PAO cut-off radius determined from an
SPLIT: energy shift=  0.007350 Ry
Split based on tail norm

   izeta = 1
                 lambda =    1.000000
                     rc =    4.475410
                 energy =   -0.667967
                kinetic =    4.608119
    potential(screened) =   -5.276086
       potential(ionic) =  -12.941936

   izeta = 2
                 rmatch =    2.841456
              splitnorm =    0.150000
                 energy =   -0.484874
                kinetic =    6.392064
    potential(screened) =   -6.876938
       potential(ionic) =  -15.314750

POLgen: Perturbative polarization orbital with L=  2

POLgen: Polarization orbital for state 2p
Split based on tail norm

   izeta = 1
                     rc =    4.475410
                 energy =    2.149901
                kinetic =    4.081447
    potential(screened) =   -1.931546
       potential(ionic) =   -7.970997
atom: Total number of Sankey-type orbitals: 13

atm_pop: Valence configuration (for local Pseudopot. screening):
 2s( 2.00)                                                            
 2p( 4.00)                                                            
 3d( 0.00)                                                            
Vna: chval, zval:    6.00000   6.00000

Vna:  Cut-off radius for the neutral-atom potential:   4.475410

atom: _________________________________________________________________________

<basis_specs>
===============================================================================
H                    Z=   1    Mass=  1.0080        Charge= 0.17977+309
Lmxo=1 Lmxkb= 2    BasisType=split      Semic=F
L=0  Nsemic=0  Cnfigmx=1
          i=1  nzeta=2  polorb=1  (1s)  (to be polarized perturbatively)
            splnorm:   0.15000    
               vcte:    40.000    
               rinn:  -0.90000    
               qcoe:    0.0000    
               qyuk:    0.0000    
               qwid:   0.10000E-01
                rcs:    0.0000      0.0000    
            lambdas:    1.0000      1.0000    
L=1  Nsemic=0  Cnfigmx=2
          i=1  nzeta=0  polorb=0  (2p)  (perturbative polarization orbital) (from 1s)
-------------------------------------------------------------------------------
L=0  Nkbl=1  erefs: 0.17977+309
L=1  Nkbl=1  erefs: 0.17977+309
L=2  Nkbl=1  erefs: 0.17977+309
===============================================================================
</basis_specs>

Using PAO.SplitTailNorm
atom: Called for H                     (Z =   1)
Maximum radius (at nrval) set to   50.00000 8518

read_vps: Pseudopotential generation method:
read_vps: ATM3      Troullier-Martins                       
Valence charge in pseudo generation:    1.00000

xc_check: Exchange-correlation functional:
xc_check: Ceperley-Alder
V l=0 = -2*Zval/r beyond r=  1.3024
V l=1 = -2*Zval/r beyond r=  1.2958
V l=2 = -2*Zval/r beyond r=  1.1321
All V_l potentials equal beyond r=  1.3011
This should be close to max(r_c) in ps generation
All pots = -2*Zval/r beyond r=  1.3024
Using small-core scheme (local charge) for Vlocal

VLOCAL_FROM_CHLOCAL: 99.0% of the norm of Vloc inside     25.643 Ry
VLOCAL_FROM_CHLOCAL: 99.9% of the norm of Vloc inside     58.442 Ry
atom: Maximum radius for chlocal:    1.51933
atom: Maximum radius for r*vlocal+2*Zval:    1.37795

KBgen: Kleinman-Bylander projectors: 
GHOST: No ghost state for L =  0
   l= 0   rc=  1.430269   el= -0.467325   Ekb= -1.944790   kbcos= -0.353334
GHOST: No ghost state for L =  1
   l= 1   rc=  1.502600   el=  0.007562   Ekb= -0.483104   kbcos= -0.025104
GHOST: No ghost state for L =  2
   l= 2   rc=  1.530073   el=  0.013286   Ekb= -0.478061   kbcos= -0.001774

KBgen: Total number of Kleinman-Bylander projectors:   9
atom: -------------------------------------------------------------------------

atom: SANKEY-TYPE ORBITALS:
atom: Selected multiple-zeta basis: split     

SPLIT: Orbitals with angular momentum L= 0

SPLIT: Basis orbitals for state 1s

SPLIT: PAO cut-off radius determined from an
SPLIT: energy shift=  0.007350 Ry
Split based on tail norm

   izeta = 1
                 lambda =    1.000000
                     rc =    5.534630
                 energy =   -0.459048
                kinetic =    0.880614
    potential(screened) =   -1.339663
       potential(ionic) =   -1.871227

   izeta = 2
                 rmatch =    3.677062
              splitnorm =    0.150000
                 energy =   -0.307709
                kinetic =    1.587589
    potential(screened) =   -1.895298
       potential(ionic) =   -2.470656

POLgen: Perturbative polarization orbital with L=  1

POLgen: Polarization orbital for state 1s
Split based on tail norm

   izeta = 1
                     rc =    5.534630
                 energy =    0.605530
                kinetic =    1.228299
    potential(screened) =   -0.622770
       potential(ionic) =   -1.095000
atom: Total number of Sankey-type orbitals:  5

atm_pop: Valence configuration (for local Pseudopot. screening):
 1s( 1.00)                                                            
 2p( 0.00)                                                            
Vna: chval, zval:    1.00000   1.00000

Vna:  Cut-off radius for the neutral-atom potential:   5.534630

atom: _________________________________________________________________________

prinput: Basis input 

PAO.BasisType split     

%block ChemicalSpeciesLabel
    1    8 O                       # Species index, atomic number, species label
    2    1 H                       # Species index, atomic number, species label
%endblock ChemicalSpeciesLabel

%block PAO.Basis                 # Define Basis set
# WARNING: This information might be incomplete!
O                     2                    # Species label, number of l-shells
 n=2   0   2                         # n, l, Nzeta 
   3.684      2.348   
   1.000      1.000   
 n=2   1   2 P   1                   # n, l, Nzeta, Polarization, NzetaPol
   4.475      2.841   
   1.000      1.000   
H                     1                    # Species label, number of l-shells
 n=1   0   2 P   1                   # n, l, Nzeta, Polarization, NzetaPol
   5.535      3.677   
   1.000      1.000   
%endblock PAO.Basis

prinput: ----------------------------------------------------------------------

coor:   Atomic-coordinates input format  =     Cartesian coordinates
coor:                                          (in Angstroms)

siesta: Atomic coordinates (Bohr) and species
siesta:     14.17295  14.17295  14.54624  1        1
siesta:     14.17295  15.61526  13.98630  2        2
siesta:     14.17295  12.73063  13.98630  2        3

siesta: System type = molecule  

initatomlists: Number of atoms, orbitals, and projectors:      3    23    34

coxmol: Writing XMOL coordinates into file H2O.xyz                                                                                                                                                                                                                             

siesta: ******************** Simulation parameters ****************************
siesta:
siesta: The following are some of the parameters of the simulation.
siesta: A complete list of the parameters used, including default values,
siesta: can be found in file out.fdf
siesta:
redata: Spin configuration                          = none
redata: Number of spin components                   = 1
redata: Time-Reversal Symmetry                      = T
redata: Spin spiral                                 = F
redata: Long output                                 =   F
redata: Number of Atomic Species                    =        2
redata: Charge density info will appear in .RHO file
redata: Write Mulliken charges (when)               = none
redata: Write Mulliken Pop.                         = NO
redata: Write Hirshfeld charges (when)              = end
redata: Write Voronoi charges (when)                = none
redata: Write spin charge (when)                    = none
redata: Matel table size (NRTAB)                    =     1024
redata: Mesh Cutoff                                 =   500.0000 Ry
redata: Net charge of the system                    =     0.0000 |e|
redata: Min. number of SCF Iter                     =        0
redata: Max. number of SCF Iter                     =      500
redata: SCF convergence failure will abort job
redata: SCF mix quantity                            = Hamiltonian
redata: Mix DM or H after convergence               =   F
redata: Recompute H after scf cycle                 =   F
redata: Mix DM in first SCF step                    =   T
redata: Write Pulay info on disk                    =   F
redata: New DM Occupancy tolerance                  = 0.000000000001
redata: No kicks to SCF
redata: DM Mixing Weight for Kicks                  =     0.5000
redata: Require Harris convergence for SCF          =   F
redata: Harris energy tolerance for SCF             =     0.000100 eV
redata: Require DM convergence for SCF              =   T
redata: DM tolerance for SCF                        =     0.000100
redata: Require EDM convergence for SCF             =   F
redata: EDM tolerance for SCF                       =     0.001000 eV
redata: Require H convergence for SCF               =   T
redata: Hamiltonian tolerance for SCF               =     0.001000 eV
redata: Require (free) Energy convergence for SCF   =   F
redata: (free) Energy tolerance for SCF             =     0.000100 eV
redata: Using Saved Data (generic)                  =   F
redata: Use continuation files for DM               =   T
redata: Neglect nonoverlap interactions             =   F
redata: Method of Calculation                       = Diagonalization
redata: Electronic Temperature                      =   300.0000 K
redata: Fix the spin of the system                  =   F
redata: Max. number of TDED Iter                    =        1
redata: Number of TDED substeps                     =        3
redata: Dynamics option                             = CG coord. optimization
redata: Variable cell                               =   F
redata: Use continuation files for CG               =   F
redata: Max atomic displ per move                   =     0.1058 Ang
redata: Maximum number of optimization moves        =      300
redata: Force tolerance                             =     0.0200 eV/Ang
mix.SCF: Pulay mixing                            = Pulay
mix.SCF:    Variant                              = stable
mix.SCF:    History steps                        = 10
mix.SCF:    Linear mixing weight                 =     0.050000
mix.SCF:    Mixing weight                        =     0.050000
mix.SCF:    SVD condition                        = 0.1000E-07
FFT: Using FFTW.
redata: ***********************************************************************

%block SCF.Mixers
  Pulay
%endblock SCF.Mixers

%block SCF.Mixer.Pulay
  # Mixing method
  method pulay
  variant stable

  # Mixing options
  weight 0.0500
  weight.linear 0.0500
  history 10
%endblock SCF.Mixer.Pulay

DM_history_depth set to one: no extrapolation allowed by default for geometry relaxation
Size of DM history Fstack: 1
Total number of electrons:     8.000000
Total ionic charge:     8.000000

* ProcessorY, Blocksize:    2   6


* Orbital distribution balance (max,min):     6     5

 Kpoints in:            1 . Kpoints trimmed:            1

siesta: k-grid: Number of k-points = 1
siesta: k-points from Monkhorst-Pack grid
siesta: k-cutoff (effective) =     7.500 Ang
siesta: k-point supercell and displacements
siesta: k-grid:     1     0     0      0.000
siesta: k-grid:     0     1     0      0.000
siesta: k-grid:     0     0     1      0.000

diag: Algorithm                                     = D&C
diag: Parallel over k                               =   F
diag: Use parallel 2D distribution                  =   T
diag: Parallel block-size                           = 6
diag: Parallel distribution                         =     2 x     2
diag: Used triangular part                          = Lower
diag: Absolute tolerance                            =  0.100E-15
diag: Orthogonalization factor                      =  0.100E-05
diag: Memory factor                                 =  1.0000


ts: **************************************************************
ts: Save H and S matrices                           =    F
ts: Save TSHS files in MD/FC simulation             =    F
ts: Save DM and EDM matrices                        =    F
ts: Only save the overlap matrix S                  =    F
ts: **************************************************************

************************ Begin: TS CHECKS AND WARNINGS ************************
************************ End: TS CHECKS AND WARNINGS **************************


                     ====================================
                        Begin CG opt. move =      0
                     ====================================

outcoor: Atomic coordinates (Ang):                          
    7.50000000    7.50000000    7.69753933   1       1  O
    7.50000000    8.26323900    7.40123033   2       2  H
    7.50000000    6.73676100    7.40123033   2       3  H

outcell: Unit cell vectors (Ang):
       15.000000    0.000000    0.000000
        0.000000   15.000000    0.000000
        0.000000    0.000000   15.000000

outcell: Cell vector modules (Ang)   :   15.000000   15.000000   15.000000
outcell: Cell angles (23,13,12) (deg):     90.0000     90.0000     90.0000
outcell: Cell volume (Ang**3)        :   3375.0000
<dSpData1D:S at geom step 0
  <sparsity:sparsity for geom step 0
    nrows_g=23 nrows=6 sparsity=.2609 nnzs=138, refcount: 7>
  <dData1D:(new from dSpData1D) n=138, refcount: 1>
refcount: 1>
new_DM -- step:     1
Initializing Density Matrix...

Attempting to read DM from file... Failed...
DM filled with atomic data:
<dSpData2D:DM initialized from atoms
  <sparsity:sparsity for geom step 0
    nrows_g=23 nrows=6 sparsity=.2609 nnzs=138, refcount: 8>
  <dData2D:DM n=138 m=1, refcount: 1>
refcount: 1>
No. of atoms with KB's overlaping orbs in proc 0. Max # of overlaps:       3      23

InitMesh: MESH = 216 x 216 x 216 = 10077696
InitMesh: Mesh cutoff (required, used) =   500.000   573.095 Ry
New grid distribution [1]: sub = 2
New grid distribution [2]: sub = 2
New grid distribution [3]: sub = 2
Setting up quadratic distribution...

stepf: Fermi-Dirac step function

siesta: Program's energy decomposition (eV):
siesta: Ebs     =       -75.649634
siesta: Eions   =       645.948886
siesta: Ena     =        78.951243
siesta: Ekin    =       392.087938
siesta: Enl     =      -137.823694
siesta: Eso     =         0.000000
siesta: Edftu   =         0.000000
siesta: DEna    =       -30.156351
siesta: DUscf   =         5.072252
siesta: DUext   =         0.000000
siesta: Ex      =      -109.849152
siesta: Ec      =       -13.048736
siesta: Exc     =      -122.897888
siesta: EbV     =         0.000000
siesta: eta*DQ  =         0.000000
siesta: Emadel  =         0.000000
siesta: Emeta   =         0.000000
siesta: Emolmec =         0.000000
siesta: Ekinion =         0.000000
siesta: Eharris =      -456.456468
siesta: Etot    =      -460.715387
siesta: FreeEng =      -460.715387

        iscf     Eharris(eV)        E_KS(eV)     FreeEng(eV)     dDmax    Ef(eV) dHmax(eV)
   scf:    1     -456.456468     -460.715387     -460.715387  1.588972 -4.556410 12.196431
timer: Routine,Calls,Time,% = IterSCF        1       0.396  27.20
   scf:    2     -461.591414     -461.160665     -461.160665  0.026119 -4.119021 10.903015
   scf:    3     -463.212274     -462.854178     -462.854178  0.208920 -0.382196  0.972462
   scf:    4     -460.450032     -462.025498     -462.025498  0.151698 -2.727828  7.468204
   scf:    5     -463.239911     -462.893890     -462.893890  0.124122 -0.244908  0.081254
   scf:    6     -462.892597     -462.893549     -462.893549  0.004148 -0.324913  0.171588
   scf:    7     -462.894186     -462.894010     -462.894010  0.002377 -0.264588  0.006097
   scf:    8     -462.893987     -462.894001     -462.894001  0.000238 -0.260532  0.023874
mix: Pulay -- inversion failed, > SVD [rank/size] 4 / 7
   scf:    9     -462.893971     -462.893999     -462.893999  0.000766 -0.276138  0.027002
mix: Pulay -- inversion failed, > SVD [rank/size] 4 / 8
   scf:   10     -462.894001     -462.894000     -462.894000  0.000016 -0.275713  0.025725
mix: Pulay -- inversion failed, > SVD [rank/size] 4 / 9
   scf:   11     -462.894002     -462.894001     -462.894001  0.000022 -0.275189  0.024089
mix: Pulay -- inversion failed, > SVD [rank/size] 4 / 9
   scf:   12     -462.894011     -462.894006     -462.894006  0.000126 -0.272711  0.015711
mix: Pulay -- inversion failed, > SVD [rank/size] 3 / 9
   scf:   13     -462.894011     -462.894010     -462.894010  0.000255 -0.267637  0.001180
mix: Pulay -- inversion failed, > SVD [rank/size] 3 / 9
   scf:   14     -462.894010     -462.894010     -462.894010  0.000020 -0.267803  0.000885

SCF Convergence by DM+H criterion
max |DM_out - DM_in|         :     0.0000195002
max |H_out - H_in|      (eV) :     0.0008853160
SCF cycle converged after 14 iterations

Using DM_out to compute the final energy and forces
No. of atoms with KB's overlaping orbs in proc 0. Max # of overlaps:       3      23

siesta: E_KS(eV) =             -462.8940

siesta: E_KS - E_eggbox =      -462.8940

siesta: Atomic forces (eV/Ang):
----------------------------------------
   Tot   -0.000000    0.000000    0.000520
----------------------------------------
   Max   10.721327
   Res    6.672651    sqrt( Sum f_i^2 / 3N )
----------------------------------------
   Max   10.721327    constrained

Stress tensor Voigt[x,y,z,yz,xz,xy] (kbar):        0.00       -7.74       -1.51        0.00       -0.00       -0.00
(Free)E + p*V (eV/cell)     -456.4011
Target enthalpy (eV/cell)     -462.8940

                     ====================================
                        Begin CG opt. move =      1
                     ====================================

outcoor: Atomic coordinates (Ang):                          
    7.50000000    7.50000000    7.75422327   1       1  O
    7.50000000    8.31972658    7.37288974   2       2  H
    7.50000000    6.68027342    7.37288974   2       3  H

outcell: Unit cell vectors (Ang):
       15.000000    0.000000    0.000000
        0.000000   15.000000    0.000000
        0.000000    0.000000   15.000000

outcell: Cell vector modules (Ang)   :   15.000000   15.000000   15.000000
outcell: Cell angles (23,13,12) (deg):     90.0000     90.0000     90.0000
outcell: Cell volume (Ang**3)        :   3375.0000
<dSpData1D:S at geom step 1
  <sparsity:sparsity for geom step 1
    nrows_g=23 nrows=6 sparsity=.2609 nnzs=138, refcount: 7>
  <dData1D:(new from dSpData1D) n=138, refcount: 1>
refcount: 1>
new_DM -- step:     2
Re-using DM from previous geometries...
Number of DMs in history: 1
 DM extrapolation coefficients: 
1   1.00000
New DM after history re-use:
<dSpData2D:SpM extrapolated using coords
  <sparsity:sparsity for geom step 1
    nrows_g=23 nrows=6 sparsity=.2609 nnzs=138, refcount: 9>
  <dData2D:(temp array for extrapolation) n=138 m=1, refcount: 1>
refcount: 1>
Note: For starting DM, Qtot, Tr[D*S] =          8.00000000          7.85823986
No. of atoms with KB's overlaping orbs in proc 0. Max # of overlaps:       3      23

InitMesh: MESH = 216 x 216 x 216 = 10077696
InitMesh: Mesh cutoff (required, used) =   500.000   573.095 Ry
New grid distribution [1]: sub = 2
New grid distribution [2]: sub = 2
New grid distribution [3]: sub = 2
Setting up quadratic distribution...

        iscf     Eharris(eV)        E_KS(eV)     FreeEng(eV)     dDmax    Ef(eV) dHmax(eV)
   scf:    1     -465.141824     -464.220493     -464.220493  0.230159  0.699936  1.859710
   scf:    2     -463.784274     -464.127830     -464.127830  0.110678 -0.598506  2.885348
   scf:    3     -464.345020     -464.281237     -464.281237  0.067066  0.185261  0.092622
   scf:    4     -464.274864     -464.279199     -464.279199  0.005206  0.251120  0.363507
   scf:    5     -464.282899     -464.281568     -464.281568  0.006567  0.171604  0.062806
   scf:    6     -464.281669     -464.281644     -464.281644  0.002031  0.153353  0.005701
   scf:    7     -464.281645     -464.281645     -464.281645  0.000048  0.153784  0.003056
mix: Pulay -- inversion failed, > SVD [rank/size] 4 / 6
   scf:    8     -464.281642     -464.281644     -464.281644  0.000088  0.152889  0.008940
mix: Pulay -- inversion failed, > SVD [rank/size] 4 / 7
   scf:    9     -464.281644     -464.281644     -464.281644  0.000012  0.153043  0.008464
mix: Pulay -- inversion failed, > SVD [rank/size] 4 / 8
   scf:   10     -464.281644     -464.281644     -464.281644  0.000011  0.153190  0.008006
mix: Pulay -- inversion failed, > SVD [rank/size] 4 / 9
   scf:   11     -464.281644     -464.281644     -464.281644  0.000011  0.153331  0.007568
mix: Pulay -- inversion failed, > SVD [rank/size] 3 / 9
   scf:   12     -464.281645     -464.281645     -464.281645  0.000174  0.155405  0.000645
mix: Pulay -- inversion failed, > SVD [rank/size] 4 / 9
   scf:   13     -464.281645     -464.281645     -464.281645  0.000035  0.155753  0.000035

SCF Convergence by DM+H criterion
max |DM_out - DM_in|         :     0.0000354586
max |H_out - H_in|      (eV) :     0.0000353821
SCF cycle converged after 13 iterations

Using DM_out to compute the final energy and forces
No. of atoms with KB's overlaping orbs in proc 0. Max # of overlaps:       3      23

siesta: E_KS(eV) =             -464.2816

siesta: Atomic forces (eV/Ang):
----------------------------------------
   Tot    0.000000   -0.000000    0.000427
----------------------------------------
   Max    5.101281
   Res    2.483762    sqrt( Sum f_i^2 / 3N )
----------------------------------------
   Max    5.101281    constrained

Stress tensor Voigt[x,y,z,yz,xz,xy] (kbar):        0.00       -2.23       -0.92        0.00       -0.00        0.00
(Free)E + p*V (eV/cell)     -462.0663
Target enthalpy (eV/cell)     -464.2816

                     ====================================
                        Begin CG opt. move =      2
                     ====================================

outcoor: Atomic coordinates (Ang):                          
    7.50000000    7.50000000    7.84491757   1       1  O
    7.50000000    8.41010671    7.32754479   2       2  H
    7.50000000    6.58989329    7.32754479   2       3  H

outcell: Unit cell vectors (Ang):
       15.000000    0.000000    0.000000
        0.000000   15.000000    0.000000
        0.000000    0.000000   15.000000

outcell: Cell vector modules (Ang)   :   15.000000   15.000000   15.000000
outcell: Cell angles (23,13,12) (deg):     90.0000     90.0000     90.0000
outcell: Cell volume (Ang**3)        :   3375.0000
<dSpData1D:S at geom step 2
  <sparsity:sparsity for geom step 2
    nrows_g=23 nrows=6 sparsity=.2609 nnzs=138, refcount: 7>
  <dData1D:(new from dSpData1D) n=138, refcount: 1>
refcount: 1>
new_DM -- step:     3
Re-using DM from previous geometries...
Number of DMs in history: 1
 DM extrapolation coefficients: 
1   1.00000
New DM after history re-use:
<dSpData2D:SpM extrapolated using coords
  <sparsity:sparsity for geom step 2
    nrows_g=23 nrows=6 sparsity=.2609 nnzs=138, refcount: 9>
  <dData2D:(temp array for extrapolation) n=138 m=1, refcount: 1>
refcount: 1>
Note: For starting DM, Qtot, Tr[D*S] =          8.00000000          7.76682655
No. of atoms with KB's overlaping orbs in proc 0. Max # of overlaps:       3      23

InitMesh: MESH = 216 x 216 x 216 = 10077696
InitMesh: Mesh cutoff (required, used) =   500.000   573.095 Ry
New grid distribution [1]: sub = 2
New grid distribution [2]: sub = 2
New grid distribution [3]: sub = 2
Setting up quadratic distribution...

        iscf     Eharris(eV)        E_KS(eV)     FreeEng(eV)     dDmax    Ef(eV) dHmax(eV)
   scf:    1     -465.427237     -464.222475     -464.222475  0.360608 -4.314573  3.163120
   scf:    2     -462.118608     -463.712265     -463.712265  0.243169 -6.427691  5.940457
   scf:    3     -464.682161     -464.417785     -464.417785  0.160249 -5.045106  0.167026
   scf:    4     -464.395855     -464.410795     -464.410795  0.015756 -4.890880  0.650441
   scf:    5     -464.418606     -464.418435     -464.418435  0.023352 -5.080930  0.121561
   scf:    6     -464.418792     -464.418751     -464.418751  0.002699 -5.056018  0.016544
   scf:    7     -464.418759     -464.418755     -464.418755  0.000082 -5.056996  0.011113
   scf:    8     -464.418760     -464.418759     -464.418759  0.000156 -5.058640  0.000631
mix: Pulay -- inversion failed, > SVD [rank/size] 5 / 7
   scf:    9     -464.418759     -464.418759     -464.418759  0.000007 -5.058572  0.000347

SCF Convergence by DM+H criterion
max |DM_out - DM_in|         :     0.0000066122
max |H_out - H_in|      (eV) :     0.0003473856
SCF cycle converged after 9 iterations

Using DM_out to compute the final energy and forces
No. of atoms with KB's overlaping orbs in proc 0. Max # of overlaps:       3      23

siesta: E_KS(eV) =             -464.4188

siesta: Atomic forces (eV/Ang):
----------------------------------------
   Tot    0.000000   -0.000000    0.000265
----------------------------------------
   Max    2.982199
   Res    1.469801    sqrt( Sum f_i^2 / 3N )
----------------------------------------
   Max    2.982199    constrained

Stress tensor Voigt[x,y,z,yz,xz,xy] (kbar):        0.00        2.58        0.26        0.00        0.00       -0.00
(Free)E + p*V (eV/cell)     -466.4116
Target enthalpy (eV/cell)     -464.4188

                     ====================================
                        Begin CG opt. move =      3
                     ====================================

outcoor: Atomic coordinates (Ang):                          
    7.50000000    7.50000000    7.81227704   1       1  O
    7.50000000    8.37757925    7.34386426   2       2  H
    7.50000000    6.62242075    7.34386426   2       3  H

outcell: Unit cell vectors (Ang):
       15.000000    0.000000    0.000000
        0.000000   15.000000    0.000000
        0.000000    0.000000   15.000000

outcell: Cell vector modules (Ang)   :   15.000000   15.000000   15.000000
outcell: Cell angles (23,13,12) (deg):     90.0000     90.0000     90.0000
outcell: Cell volume (Ang**3)        :   3375.0000
<dSpData1D:S at geom step 3
  <sparsity:sparsity for geom step 3
    nrows_g=23 nrows=6 sparsity=.2609 nnzs=138, refcount: 7>
  <dData1D:(new from dSpData1D) n=138, refcount: 1>
refcount: 1>
new_DM -- step:     4
Re-using DM from previous geometries...
Number of DMs in history: 1
 DM extrapolation coefficients: 
1   1.00000
New DM after history re-use:
<dSpData2D:SpM extrapolated using coords
  <sparsity:sparsity for geom step 3
    nrows_g=23 nrows=6 sparsity=.2609 nnzs=138, refcount: 9>
  <dData2D:(temp array for extrapolation) n=138 m=1, refcount: 1>
refcount: 1>
Note: For starting DM, Qtot, Tr[D*S] =          8.00000000          8.06805465
No. of atoms with KB's overlaping orbs in proc 0. Max # of overlaps:       3      23

InitMesh: MESH = 216 x 216 x 216 = 10077696
InitMesh: Mesh cutoff (required, used) =   500.000   573.095 Ry
New grid distribution [1]: sub = 2
New grid distribution [2]: sub = 2
New grid distribution [3]: sub = 2
Setting up quadratic distribution...

        iscf     Eharris(eV)        E_KS(eV)     FreeEng(eV)     dDmax    Ef(eV) dHmax(eV)
   scf:    1     -464.087374     -464.553461     -464.553461  0.122262 -5.645652  1.106610
   scf:    2     -464.319302     -464.497734     -464.497734  0.072133 -4.925775  1.991474
   scf:    3     -464.605503     -464.577218     -464.577218  0.045776 -5.386014  0.038910
   scf:    4     -464.576615     -464.577021     -464.577021  0.004302 -5.352576  0.119138
   scf:    5     -464.577413     -464.577324     -464.577324  0.003011 -5.382431  0.014689
   scf:    6     -464.577330     -464.577327     -464.577327  0.000625 -5.374887  0.000396
mix: Pulay -- inversion failed, > SVD [rank/size] 4 / 5
   scf:    7     -464.577327     -464.577327     -464.577327  0.000015 -5.375009  0.000316

SCF Convergence by DM+H criterion
max |DM_out - DM_in|         :     0.0000151590
max |H_out - H_in|      (eV) :     0.0003156771
SCF cycle converged after 7 iterations

Using DM_out to compute the final energy and forces
No. of atoms with KB's overlaping orbs in proc 0. Max # of overlaps:       3      23

siesta: E_KS(eV) =             -464.5773

siesta: Atomic forces (eV/Ang):
----------------------------------------
   Tot    0.000000   -0.000000   -0.000147
----------------------------------------
   Max    1.529246
   Res    0.785464    sqrt( Sum f_i^2 / 3N )
----------------------------------------
   Max    1.529246    constrained

Stress tensor Voigt[x,y,z,yz,xz,xy] (kbar):        0.00        1.27       -0.17        0.00        0.00       -0.00
(Free)E + p*V (eV/cell)     -465.3548
Target enthalpy (eV/cell)     -464.5773

cgvc: Finished line minimization    1.  Mean atomic displacement =    0.1697

                     ====================================
                        Begin CG opt. move =      4
                     ====================================

outcoor: Atomic coordinates (Ang):                          
    7.50000000    7.50000000    7.91811249   1       1  O
    7.50000000    8.31678783    7.29094244   2       2  H
    7.50000000    6.68321217    7.29094244   2       3  H

outcell: Unit cell vectors (Ang):
       15.000000    0.000000    0.000000
        0.000000   15.000000    0.000000
        0.000000    0.000000   15.000000

outcell: Cell vector modules (Ang)   :   15.000000   15.000000   15.000000
outcell: Cell angles (23,13,12) (deg):     90.0000     90.0000     90.0000
outcell: Cell volume (Ang**3)        :   3375.0000
<dSpData1D:S at geom step 4
  <sparsity:sparsity for geom step 4
    nrows_g=23 nrows=6 sparsity=.2609 nnzs=138, refcount: 7>
  <dData1D:(new from dSpData1D) n=138, refcount: 1>
refcount: 1>
new_DM -- step:     5
Re-using DM from previous geometries...
Number of DMs in history: 1
 DM extrapolation coefficients: 
1   1.00000
New DM after history re-use:
<dSpData2D:SpM extrapolated using coords
  <sparsity:sparsity for geom step 4
    nrows_g=23 nrows=6 sparsity=.2609 nnzs=138, refcount: 9>
  <dData2D:(temp array for extrapolation) n=138 m=1, refcount: 1>
refcount: 1>
Note: For starting DM, Qtot, Tr[D*S] =          8.00000000          7.91650832
No. of atoms with KB's overlaping orbs in proc 0. Max # of overlaps:       3      23

InitMesh: MESH = 216 x 216 x 216 = 10077696
InitMesh: Mesh cutoff (required, used) =   500.000   573.095 Ry
New grid distribution [1]: sub = 2
New grid distribution [2]: sub = 2
New grid distribution [3]: sub = 2
Setting up quadratic distribution...

        iscf     Eharris(eV)        E_KS(eV)     FreeEng(eV)     dDmax    Ef(eV) dHmax(eV)
   scf:    1     -465.031189     -464.630373     -464.630373  0.185808 -4.859642  1.614278
   scf:    2     -464.091528     -464.499081     -464.499081  0.106906 -5.866927  2.966285
   scf:    3     -464.743562     -464.680049     -464.680049  0.071188 -5.202031  0.099721
   scf:    4     -464.672206     -464.677462     -464.677462  0.008883 -5.118153  0.394772
   scf:    5     -464.682431     -464.680599     -464.680599  0.007012 -5.184997  0.087962
   scf:    6     -464.680839     -464.680779     -464.680779  0.001888 -5.201454  0.001737
   scf:    7     -464.680779     -464.680779     -464.680779  0.000053 -5.201238  0.000517

SCF Convergence by DM+H criterion
max |DM_out - DM_in|         :     0.0000528068
max |H_out - H_in|      (eV) :     0.0005174569
SCF cycle converged after 7 iterations

Using DM_out to compute the final energy and forces
No. of atoms with KB's overlaping orbs in proc 0. Max # of overlaps:       3      23

siesta: E_KS(eV) =             -464.6808

siesta: Atomic forces (eV/Ang):
----------------------------------------
   Tot   -0.000000    0.000000   -0.000716
----------------------------------------
   Max    2.160733
   Res    1.184194    sqrt( Sum f_i^2 / 3N )
----------------------------------------
   Max    2.160733    constrained

Stress tensor Voigt[x,y,z,yz,xz,xy] (kbar):        0.00        1.30        0.65       -0.00       -0.00        0.00
(Free)E + p*V (eV/cell)     -466.0476
Target enthalpy (eV/cell)     -464.6808

                     ====================================
                        Begin CG opt. move =      5
                     ====================================

outcoor: Atomic coordinates (Ang):                          
    7.50000000    7.50000000    7.88511112   1       1  O
    7.50000000    8.33574367    7.30744440   2       2  H
    7.50000000    6.66425633    7.30744440   2       3  H

outcell: Unit cell vectors (Ang):
       15.000000    0.000000    0.000000
        0.000000   15.000000    0.000000
        0.000000    0.000000   15.000000

outcell: Cell vector modules (Ang)   :   15.000000   15.000000   15.000000
outcell: Cell angles (23,13,12) (deg):     90.0000     90.0000     90.0000
outcell: Cell volume (Ang**3)        :   3375.0000
<dSpData1D:S at geom step 5
  <sparsity:sparsity for geom step 5
    nrows_g=23 nrows=6 sparsity=.2609 nnzs=138, refcount: 7>
  <dData1D:(new from dSpData1D) n=138, refcount: 1>
refcount: 1>
new_DM -- step:     6
Re-using DM from previous geometries...
Number of DMs in history: 1
 DM extrapolation coefficients: 
1   1.00000
New DM after history re-use:
<dSpData2D:SpM extrapolated using coords
  <sparsity:sparsity for geom step 5
    nrows_g=23 nrows=6 sparsity=.2609 nnzs=138, refcount: 9>
  <dData2D:(temp array for extrapolation) n=138 m=1, refcount: 1>
refcount: 1>
Note: For starting DM, Qtot, Tr[D*S] =          8.00000000          8.02538511
No. of atoms with KB's overlaping orbs in proc 0. Max # of overlaps:       3      23

InitMesh: MESH = 216 x 216 x 216 = 10077696
InitMesh: Mesh cutoff (required, used) =   500.000   573.095 Ry
New grid distribution [1]: sub = 2
New grid distribution [2]: sub = 2
New grid distribution [3]: sub = 2
Setting up quadratic distribution...

        iscf     Eharris(eV)        E_KS(eV)     FreeEng(eV)     dDmax    Ef(eV) dHmax(eV)
   scf:    1     -464.538489     -464.691755     -464.691755  0.057005 -5.253957  0.585181
   scf:    2     -464.622307     -464.674836     -464.674836  0.036485 -4.888043  1.067127
   scf:    3     -464.706211     -464.698205     -464.698205  0.023774 -5.127118  0.032694
   scf:    4     -464.698231     -464.698234     -464.698234  0.001985 -5.115001  0.043426
   scf:    5     -464.698266     -464.698270     -464.698270  0.001268 -5.127233  0.011538
   scf:    6     -464.698274     -464.698273     -464.698273  0.000259 -5.124715  0.000171
mix: Pulay -- inversion failed, > SVD [rank/size] 3 / 5
   scf:    7     -464.698273     -464.698273     -464.698273  0.000002 -5.124725  0.000177

SCF Convergence by DM+H criterion
max |DM_out - DM_in|         :     0.0000021874
max |H_out - H_in|      (eV) :     0.0001769809
SCF cycle converged after 7 iterations

Using DM_out to compute the final energy and forces
No. of atoms with KB's overlaping orbs in proc 0. Max # of overlaps:       3      23

siesta: E_KS(eV) =             -464.6983

siesta: Atomic forces (eV/Ang):
----------------------------------------
   Tot   -0.000000    0.000000    0.000023
----------------------------------------
   Max    1.635356
   Res    0.892397    sqrt( Sum f_i^2 / 3N )
----------------------------------------
   Max    1.635356    constrained

Stress tensor Voigt[x,y,z,yz,xz,xy] (kbar):        0.00        1.30        0.30       -0.00       -0.00        0.00
(Free)E + p*V (eV/cell)     -465.8241
Target enthalpy (eV/cell)     -464.6983

cgvc: Finished line minimization    2.  Mean atomic displacement =    0.1168

                     ====================================
                        Begin CG opt. move =      6
                     ====================================

outcoor: Atomic coordinates (Ang):                          
    7.50000000    7.50000000    7.87806241   1       1  O
    7.50000000    8.26029987    7.31096794   2       2  H
    7.50000000    6.73970013    7.31096794   2       3  H

outcell: Unit cell vectors (Ang):
       15.000000    0.000000    0.000000
        0.000000   15.000000    0.000000
        0.000000    0.000000   15.000000

outcell: Cell vector modules (Ang)   :   15.000000   15.000000   15.000000
outcell: Cell angles (23,13,12) (deg):     90.0000     90.0000     90.0000
outcell: Cell volume (Ang**3)        :   3375.0000
<dSpData1D:S at geom step 6
  <sparsity:sparsity for geom step 6
    nrows_g=23 nrows=6 sparsity=.2609 nnzs=138, refcount: 7>
  <dData1D:(new from dSpData1D) n=138, refcount: 1>
refcount: 1>
new_DM -- step:     7
Re-using DM from previous geometries...
Number of DMs in history: 1
 DM extrapolation coefficients: 
1   1.00000
New DM after history re-use:
<dSpData2D:SpM extrapolated using coords
  <sparsity:sparsity for geom step 6
    nrows_g=23 nrows=6 sparsity=.2609 nnzs=138, refcount: 9>
  <dData2D:(temp array for extrapolation) n=138 m=1, refcount: 1>
refcount: 1>
Note: For starting DM, Qtot, Tr[D*S] =          8.00000000          8.07584185
No. of atoms with KB's overlaping orbs in proc 0. Max # of overlaps:       3      23

InitMesh: MESH = 216 x 216 x 216 = 10077696
InitMesh: Mesh cutoff (required, used) =   500.000   573.095 Ry
New grid distribution [1]: sub = 2
New grid distribution [2]: sub = 2
New grid distribution [3]: sub = 2
Setting up quadratic distribution...

        iscf     Eharris(eV)        E_KS(eV)     FreeEng(eV)     dDmax    Ef(eV) dHmax(eV)
   scf:    1     -464.087956     -464.715699     -464.715699  0.137894 -5.859625  1.206742
   scf:    2     -464.456606     -464.656054     -464.656054  0.067372 -5.109673  2.076306
   scf:    3     -464.777753     -464.745082     -464.745082  0.041604 -5.580012  0.055295
   scf:    4     -464.744493     -464.744951     -464.744951  0.005271 -5.542592  0.141665
   scf:    5     -464.745278     -464.745374     -464.745374  0.003981 -5.587016  0.063245
   scf:    6     -464.745457     -464.745430     -464.745430  0.001815 -5.565992  0.001289
   scf:    7     -464.745430     -464.745430     -464.745430  0.000055 -5.566383  0.002703
   scf:    8     -464.745430     -464.745430     -464.745430  0.000049 -5.565818  0.000232

SCF Convergence by DM+H criterion
max |DM_out - DM_in|         :     0.0000492094
max |H_out - H_in|      (eV) :     0.0002323330
SCF cycle converged after 8 iterations

Using DM_out to compute the final energy and forces
No. of atoms with KB's overlaping orbs in proc 0. Max # of overlaps:       3      23

siesta: E_KS(eV) =             -464.7454

siesta: Atomic forces (eV/Ang):
----------------------------------------
   Tot    0.000000    0.000000    0.000333
----------------------------------------
   Max    1.790893
   Res    0.913719    sqrt( Sum f_i^2 / 3N )
----------------------------------------
   Max    1.790893    constrained

Stress tensor Voigt[x,y,z,yz,xz,xy] (kbar):        0.00       -0.84       -0.48       -0.00       -0.00        0.00
(Free)E + p*V (eV/cell)     -463.8202
Target enthalpy (eV/cell)     -464.7454

                     ====================================
                        Begin CG opt. move =      7
                     ====================================

outcoor: Atomic coordinates (Ang):                          
    7.50000000    7.50000000    7.88108834   1       1  O
    7.50000000    8.29268699    7.30945533   2       2  H
    7.50000000    6.70731301    7.30945533   2       3  H

outcell: Unit cell vectors (Ang):
       15.000000    0.000000    0.000000
        0.000000   15.000000    0.000000
        0.000000    0.000000   15.000000

outcell: Cell vector modules (Ang)   :   15.000000   15.000000   15.000000
outcell: Cell angles (23,13,12) (deg):     90.0000     90.0000     90.0000
outcell: Cell volume (Ang**3)        :   3375.0000
<dSpData1D:S at geom step 7
  <sparsity:sparsity for geom step 7
    nrows_g=23 nrows=6 sparsity=.2609 nnzs=138, refcount: 7>
  <dData1D:(new from dSpData1D) n=138, refcount: 1>
refcount: 1>
new_DM -- step:     8
Re-using DM from previous geometries...
Number of DMs in history: 1
 DM extrapolation coefficients: 
1   1.00000
New DM after history re-use:
<dSpData2D:SpM extrapolated using coords
  <sparsity:sparsity for geom step 7
    nrows_g=23 nrows=6 sparsity=.2609 nnzs=138, refcount: 9>
  <dData2D:(temp array for extrapolation) n=138 m=1, refcount: 1>
refcount: 1>
Note: For starting DM, Qtot, Tr[D*S] =          8.00000000          7.96781196
No. of atoms with KB's overlaping orbs in proc 0. Max # of overlaps:       3      23

InitMesh: MESH = 216 x 216 x 216 = 10077696
InitMesh: Mesh cutoff (required, used) =   500.000   573.095 Ry
New grid distribution [1]: sub = 2
New grid distribution [2]: sub = 2
New grid distribution [3]: sub = 2
Setting up quadratic distribution...

        iscf     Eharris(eV)        E_KS(eV)     FreeEng(eV)     dDmax    Ef(eV) dHmax(eV)
   scf:    1     -465.043344     -464.776343     -464.776343  0.060697 -5.248438  0.477842
   scf:    2     -464.734676     -464.766695     -464.766695  0.029427 -5.541420  0.830417
   scf:    3     -464.786282     -464.780965     -464.780965  0.018715 -5.355402  0.026418
   scf:    4     -464.781077     -464.781037     -464.781037  0.001296 -5.350450  0.026587
   scf:    5     -464.780927     -464.781007     -464.781007  0.001414 -5.364926  0.039452
   scf:    6     -464.781060     -464.781046     -464.781046  0.000592 -5.359401  0.000736
mix: Pulay -- inversion failed, > SVD [rank/size] 3 / 5
   scf:    7     -464.781046     -464.781046     -464.781046  0.000014 -5.359551  0.000221

SCF Convergence by DM+H criterion
max |DM_out - DM_in|         :     0.0000138730
max |H_out - H_in|      (eV) :     0.0002214248
SCF cycle converged after 7 iterations

Using DM_out to compute the final energy and forces
No. of atoms with KB's overlaping orbs in proc 0. Max # of overlaps:       3      23

siesta: E_KS(eV) =             -464.7810

siesta: Atomic forces (eV/Ang):
----------------------------------------
   Tot    0.000000   -0.000000   -0.000044
----------------------------------------
   Max    0.342322
   Res    0.161843    sqrt( Sum f_i^2 / 3N )
----------------------------------------
   Max    0.342322    constrained

Stress tensor Voigt[x,y,z,yz,xz,xy] (kbar):        0.00        0.13       -0.09       -0.00        0.00       -0.00
(Free)E + p*V (eV/cell)     -464.8097
Target enthalpy (eV/cell)     -464.7810

cgvc: Finished line minimization    3.  Mean atomic displacement =    0.0667

                     ====================================
                        Begin CG opt. move =      8
                     ====================================

outcoor: Atomic coordinates (Ang):                          
    7.50000000    7.50000000    7.91931730   1       1  O
    7.50000000    8.26494130    7.29033827   2       2  H
    7.50000000    6.73505870    7.29033827   2       3  H

outcell: Unit cell vectors (Ang):
       15.000000    0.000000    0.000000
        0.000000   15.000000    0.000000
        0.000000    0.000000   15.000000

outcell: Cell vector modules (Ang)   :   15.000000   15.000000   15.000000
outcell: Cell angles (23,13,12) (deg):     90.0000     90.0000     90.0000
outcell: Cell volume (Ang**3)        :   3375.0000
<dSpData1D:S at geom step 8
  <sparsity:sparsity for geom step 8
    nrows_g=23 nrows=6 sparsity=.2609 nnzs=138, refcount: 7>
  <dData1D:(new from dSpData1D) n=138, refcount: 1>
refcount: 1>
new_DM -- step:     9
Re-using DM from previous geometries...
Number of DMs in history: 1
 DM extrapolation coefficients: 
1   1.00000
New DM after history re-use:
<dSpData2D:SpM extrapolated using coords
  <sparsity:sparsity for geom step 8
    nrows_g=23 nrows=6 sparsity=.2609 nnzs=138, refcount: 9>
  <dData2D:(temp array for extrapolation) n=138 m=1, refcount: 1>
refcount: 1>
Note: For starting DM, Qtot, Tr[D*S] =          8.00000000          7.96601788
No. of atoms with KB's overlaping orbs in proc 0. Max # of overlaps:       3      23

InitMesh: MESH = 216 x 216 x 216 = 10077696
InitMesh: Mesh cutoff (required, used) =   500.000   573.095 Ry
New grid distribution [1]: sub = 2
New grid distribution [2]: sub = 2
New grid distribution [3]: sub = 2
Setting up quadratic distribution...

        iscf     Eharris(eV)        E_KS(eV)     FreeEng(eV)     dDmax    Ef(eV) dHmax(eV)
   scf:    1     -464.886612     -464.768459     -464.768459  0.067622 -5.371847  0.667162
   scf:    2     -464.686933     -464.749028     -464.749028  0.040285 -5.785842  1.162203
   scf:    3     -464.786612     -464.776648     -464.776648  0.026134 -5.518624  0.038423
   scf:    4     -464.776658     -464.776697     -464.776697  0.002045 -5.510360  0.057959
   scf:    5     -464.776796     -464.776753     -464.776753  0.000670 -5.517285  0.026726
   scf:    6     -464.776776     -464.776770     -464.776770  0.000481 -5.522185  0.000392
mix: Pulay -- inversion failed, > SVD [rank/size] 3 / 5
   scf:    7     -464.776770     -464.776770     -464.776770  0.000006 -5.522251  0.000185

SCF Convergence by DM+H criterion
max |DM_out - DM_in|         :     0.0000060147
max |H_out - H_in|      (eV) :     0.0001846639
SCF cycle converged after 7 iterations

Using DM_out to compute the final energy and forces
No. of atoms with KB's overlaping orbs in proc 0. Max # of overlaps:       3      23

siesta: E_KS(eV) =             -464.7768

siesta: Atomic forces (eV/Ang):
----------------------------------------
   Tot   -0.000000    0.000000   -0.001086
----------------------------------------
   Max    0.865644
   Res    0.362846    sqrt( Sum f_i^2 / 3N )
----------------------------------------
   Max    0.865644    constrained

Stress tensor Voigt[x,y,z,yz,xz,xy] (kbar):        0.00        0.13        0.26        0.00        0.00       -0.00
(Free)E + p*V (eV/cell)     -465.0509
Target enthalpy (eV/cell)     -464.7768

                     ====================================
                        Begin CG opt. move =      9
                     ====================================

outcoor: Atomic coordinates (Ang):                          
    7.50000000    7.50000000    7.89726419   1       1  O
    7.50000000    8.28094694    7.30136631   2       2  H
    7.50000000    6.71905306    7.30136631   2       3  H

outcell: Unit cell vectors (Ang):
       15.000000    0.000000    0.000000
        0.000000   15.000000    0.000000
        0.000000    0.000000   15.000000

outcell: Cell vector modules (Ang)   :   15.000000   15.000000   15.000000
outcell: Cell angles (23,13,12) (deg):     90.0000     90.0000     90.0000
outcell: Cell volume (Ang**3)        :   3375.0000
<dSpData1D:S at geom step 9
  <sparsity:sparsity for geom step 9
    nrows_g=23 nrows=6 sparsity=.2609 nnzs=138, refcount: 7>
  <dData1D:(new from dSpData1D) n=138, refcount: 1>
refcount: 1>
new_DM -- step:    10
Re-using DM from previous geometries...
Number of DMs in history: 1
 DM extrapolation coefficients: 
1   1.00000
New DM after history re-use:
<dSpData2D:SpM extrapolated using coords
  <sparsity:sparsity for geom step 9
    nrows_g=23 nrows=6 sparsity=.2609 nnzs=138, refcount: 9>
  <dData2D:(temp array for extrapolation) n=138 m=1, refcount: 1>
refcount: 1>
Note: For starting DM, Qtot, Tr[D*S] =          8.00000000          8.01903894
No. of atoms with KB's overlaping orbs in proc 0. Max # of overlaps:       3      23

InitMesh: MESH = 216 x 216 x 216 = 10077696
InitMesh: Mesh cutoff (required, used) =   500.000   573.095 Ry
New grid distribution [1]: sub = 2
New grid distribution [2]: sub = 2
New grid distribution [3]: sub = 2
Setting up quadratic distribution...

        iscf     Eharris(eV)        E_KS(eV)     FreeEng(eV)     dDmax    Ef(eV) dHmax(eV)
   scf:    1     -464.703904     -464.784576     -464.784576  0.038694 -5.504965  0.406611
   scf:    2     -464.754945     -464.777540     -464.777540  0.023618 -5.250858  0.703875
   scf:    3     -464.791192     -464.787603     -464.787603  0.015122 -5.413941  0.022722
   scf:    4     -464.787660     -464.787635     -464.787635  0.001224 -5.406532  0.018801
   scf:    5     -464.787616     -464.787635     -464.787635  0.000818 -5.415072  0.018691
   scf:    6     -464.787645     -464.787642     -464.787642  0.000352 -5.411317  0.000445
mix: Pulay -- inversion failed, > SVD [rank/size] 3 / 5
   scf:    7     -464.787642     -464.787642     -464.787642  0.000009 -5.411218  0.000114

SCF Convergence by DM+H criterion
max |DM_out - DM_in|         :     0.0000091870
max |H_out - H_in|      (eV) :     0.0001144210
SCF cycle converged after 7 iterations

Using DM_out to compute the final energy and forces
No. of atoms with KB's overlaping orbs in proc 0. Max # of overlaps:       3      23

siesta: E_KS(eV) =             -464.7876

siesta: Atomic forces (eV/Ang):
----------------------------------------
   Tot   -0.000000    0.000000   -0.000395
----------------------------------------
   Max    0.175175
   Res    0.101178    sqrt( Sum f_i^2 / 3N )
----------------------------------------
   Max    0.175175    constrained

Stress tensor Voigt[x,y,z,yz,xz,xy] (kbar):        0.00        0.13        0.04       -0.00       -0.00        0.00
(Free)E + p*V (eV/cell)     -464.9099
Target enthalpy (eV/cell)     -464.7876

cgvc: Finished line minimization    4.  Mean atomic displacement =    0.0282

                     ====================================
                        Begin CG opt. move =     10
                     ====================================

outcoor: Atomic coordinates (Ang):                          
    7.50000000    7.50000000    7.89766488   1       1  O
    7.50000000    8.26267225    7.30115259   2       2  H
    7.50000000    6.73732775    7.30115258   2       3  H

outcell: Unit cell vectors (Ang):
       15.000000    0.000000    0.000000
        0.000000   15.000000    0.000000
        0.000000    0.000000   15.000000

outcell: Cell vector modules (Ang)   :   15.000000   15.000000   15.000000
outcell: Cell angles (23,13,12) (deg):     90.0000     90.0000     90.0000
outcell: Cell volume (Ang**3)        :   3375.0000
<dSpData1D:S at geom step 10
  <sparsity:sparsity for geom step 10
    nrows_g=23 nrows=6 sparsity=.2609 nnzs=138, refcount: 7>
  <dData1D:(new from dSpData1D) n=138, refcount: 1>
refcount: 1>
new_DM -- step:    11
Re-using DM from previous geometries...
Number of DMs in history: 1
 DM extrapolation coefficients: 
1   1.00000
New DM after history re-use:
<dSpData2D:SpM extrapolated using coords
  <sparsity:sparsity for geom step 10
    nrows_g=23 nrows=6 sparsity=.2609 nnzs=138, refcount: 9>
  <dData2D:(temp array for extrapolation) n=138 m=1, refcount: 1>
refcount: 1>
Note: For starting DM, Qtot, Tr[D*S] =          8.00000000          8.01403850
No. of atoms with KB's overlaping orbs in proc 0. Max # of overlaps:       3      23

InitMesh: MESH = 216 x 216 x 216 = 10077696
InitMesh: Mesh cutoff (required, used) =   500.000   573.095 Ry
New grid distribution [1]: sub = 2
New grid distribution [2]: sub = 2
New grid distribution [3]: sub = 2
Setting up quadratic distribution...

        iscf     Eharris(eV)        E_KS(eV)     FreeEng(eV)     dDmax    Ef(eV) dHmax(eV)
   scf:    1     -464.647114     -464.781549     -464.781549  0.032111 -5.579017  0.221972
   scf:    2     -464.772737     -464.779518     -464.779518  0.012626 -5.448667  0.378998
   scf:    3     -464.783648     -464.782538     -464.782538  0.007966 -5.531263  0.012924
   scf:    4     -464.782575     -464.782560     -464.782560  0.000764 -5.530221  0.006616
   scf:    5     -464.782498     -464.782541     -464.782541  0.000732 -5.537868  0.033757
   scf:    6     -464.782570     -464.782562     -464.782562  0.000784 -5.529528  0.000455
   scf:    7     -464.782564     -464.782564     -464.782564  0.000008 -5.529495  0.000140

SCF Convergence by DM+H criterion
max |DM_out - DM_in|         :     0.0000078790
max |H_out - H_in|      (eV) :     0.0001395581
SCF cycle converged after 7 iterations

Using DM_out to compute the final energy and forces
No. of atoms with KB's overlaping orbs in proc 0. Max # of overlaps:       3      23

siesta: E_KS(eV) =             -464.7826

siesta: Atomic forces (eV/Ang):
----------------------------------------
   Tot   -0.000000    0.000000   -0.000435
----------------------------------------
   Max    0.483890
   Res    0.295127    sqrt( Sum f_i^2 / 3N )
----------------------------------------
   Max    0.483890    constrained

Stress tensor Voigt[x,y,z,yz,xz,xy] (kbar):        0.00       -0.34       -0.13        0.00       -0.00       -0.00
(Free)E + p*V (eV/cell)     -464.4528
Target enthalpy (eV/cell)     -464.7826

                     ====================================
                        Begin CG opt. move =     11
                     ====================================

outcoor: Atomic coordinates (Ang):                          
    7.50000000    7.50000000    7.89737414   1       1  O
    7.50000000    8.27593250    7.30130767   2       2  H
    7.50000000    6.72406750    7.30130767   2       3  H

outcell: Unit cell vectors (Ang):
       15.000000    0.000000    0.000000
        0.000000   15.000000    0.000000
        0.000000    0.000000   15.000000

outcell: Cell vector modules (Ang)   :   15.000000   15.000000   15.000000
outcell: Cell angles (23,13,12) (deg):     90.0000     90.0000     90.0000
outcell: Cell volume (Ang**3)        :   3375.0000
<dSpData1D:S at geom step 11
  <sparsity:sparsity for geom step 11
    nrows_g=23 nrows=6 sparsity=.2609 nnzs=138, refcount: 7>
  <dData1D:(new from dSpData1D) n=138, refcount: 1>
refcount: 1>
new_DM -- step:    12
Re-using DM from previous geometries...
Number of DMs in history: 1
 DM extrapolation coefficients: 
1   1.00000
New DM after history re-use:
<dSpData2D:SpM extrapolated using coords
  <sparsity:sparsity for geom step 11
    nrows_g=23 nrows=6 sparsity=.2609 nnzs=138, refcount: 9>
  <dData2D:(temp array for extrapolation) n=138 m=1, refcount: 1>
refcount: 1>
Note: For starting DM, Qtot, Tr[D*S] =          8.00000000          7.98990931
No. of atoms with KB's overlaping orbs in proc 0. Max # of overlaps:       3      23

InitMesh: MESH = 216 x 216 x 216 = 10077696
InitMesh: Mesh cutoff (required, used) =   500.000   573.095 Ry
New grid distribution [1]: sub = 2
New grid distribution [2]: sub = 2
New grid distribution [3]: sub = 2
Setting up quadratic distribution...

        iscf     Eharris(eV)        E_KS(eV)     FreeEng(eV)     dDmax    Ef(eV) dHmax(eV)
   scf:    1     -464.885035     -464.788026     -464.788026  0.023366 -5.408832  0.155443
   scf:    2     -464.783666     -464.787019     -464.787019  0.009119 -5.499402  0.266262
   scf:    3     -464.789064     -464.788514     -464.788514  0.005795 -5.441788  0.009911
   scf:    4     -464.788533     -464.788525     -464.788525  0.000505 -5.440991  0.003969
   scf:    5     -464.788491     -464.788512     -464.788512  0.000651 -5.447704  0.024352
   scf:    6     -464.788529     -464.788525     -464.788525  0.000476 -5.442849  0.000331
   scf:    7     -464.788525     -464.788525     -464.788525  0.000007 -5.442888  0.000015

SCF Convergence by DM+H criterion
max |DM_out - DM_in|         :     0.0000071309
max |H_out - H_in|      (eV) :     0.0000153814
SCF cycle converged after 7 iterations

Using DM_out to compute the final energy and forces
No. of atoms with KB's overlaping orbs in proc 0. Max # of overlaps:       3      23

siesta: E_KS(eV) =             -464.7885

siesta: Atomic forces (eV/Ang):
----------------------------------------
   Tot    0.000000   -0.000000   -0.000511
----------------------------------------
   Max    0.020757
   Res    0.008758    sqrt( Sum f_i^2 / 3N )
----------------------------------------
   Max    0.020757    constrained

Stress tensor Voigt[x,y,z,yz,xz,xy] (kbar):        0.00        0.00       -0.00       -0.00        0.00        0.00
(Free)E + p*V (eV/cell)     -464.7892
Target enthalpy (eV/cell)     -464.7885

cgvc: Finished line minimization    5.  Mean atomic displacement =    0.0077

                     ====================================
                        Begin CG opt. move =     12
                     ====================================

outcoor: Atomic coordinates (Ang):                          
    7.50000000    7.50000000    7.90174397   1       1  O
    7.50000000    8.27267832    7.29906788   2       2  H
    7.50000000    6.72732168    7.29906788   2       3  H

outcell: Unit cell vectors (Ang):
       15.000000    0.000000    0.000000
        0.000000   15.000000    0.000000
        0.000000    0.000000   15.000000

outcell: Cell vector modules (Ang)   :   15.000000   15.000000   15.000000
outcell: Cell angles (23,13,12) (deg):     90.0000     90.0000     90.0000
outcell: Cell volume (Ang**3)        :   3375.0000
<dSpData1D:S at geom step 12
  <sparsity:sparsity for geom step 12
    nrows_g=23 nrows=6 sparsity=.2609 nnzs=138, refcount: 7>
  <dData1D:(new from dSpData1D) n=138, refcount: 1>
refcount: 1>
new_DM -- step:    13
Re-using DM from previous geometries...
Number of DMs in history: 1
 DM extrapolation coefficients: 
1   1.00000
New DM after history re-use:
<dSpData2D:SpM extrapolated using coords
  <sparsity:sparsity for geom step 12
    nrows_g=23 nrows=6 sparsity=.2609 nnzs=138, refcount: 9>
  <dData2D:(temp array for extrapolation) n=138 m=1, refcount: 1>
refcount: 1>
No. of atoms with KB's overlaping orbs in proc 0. Max # of overlaps:       3      23

InitMesh: MESH = 216 x 216 x 216 = 10077696
InitMesh: Mesh cutoff (required, used) =   500.000   573.095 Ry
New grid distribution [1]: sub = 2
New grid distribution [2]: sub = 2
New grid distribution [3]: sub = 2
Setting up quadratic distribution...

        iscf     Eharris(eV)        E_KS(eV)     FreeEng(eV)     dDmax    Ef(eV) dHmax(eV)
   scf:    1     -464.802883     -464.788130     -464.788130  0.007805 -5.444766  0.076967
   scf:    2     -464.787097     -464.787887     -464.787887  0.004474 -5.492759  0.131870
   scf:    3     -464.788364     -464.788237     -464.788237  0.002872 -5.461993  0.004237
   scf:    4     -464.788240     -464.788239     -464.788239  0.000194 -5.462414  0.000945
   scf:    5     -464.788238     -464.788239     -464.788239  0.000091 -5.463378  0.003784
   scf:    6     -464.788239     -464.788239     -464.788239  0.000089 -5.462440  0.000088

SCF Convergence by DM+H criterion
max |DM_out - DM_in|         :     0.0000887276
max |H_out - H_in|      (eV) :     0.0000883595
SCF cycle converged after 6 iterations

Using DM_out to compute the final energy and forces
No. of atoms with KB's overlaping orbs in proc 0. Max # of overlaps:       3      23

siesta: E_KS(eV) =             -464.7882

siesta: Atomic forces (eV/Ang):
----------------------------------------
   Tot   -0.000000   -0.000000   -0.000385
----------------------------------------
   Max    0.118332
   Res    0.048298    sqrt( Sum f_i^2 / 3N )
----------------------------------------
   Max    0.118332    constrained

Stress tensor Voigt[x,y,z,yz,xz,xy] (kbar):        0.00        0.00        0.04       -0.00        0.00       -0.00
(Free)E + p*V (eV/cell)     -464.8170
Target enthalpy (eV/cell)     -464.7882

                     ====================================
                        Begin CG opt. move =     13
                     ====================================

outcoor: Atomic coordinates (Ang):                          
    7.50000000    7.50000000    7.89815886   1       1  O
    7.50000000    8.27534812    7.30090545   2       2  H
    7.50000000    6.72465188    7.30090545   2       3  H

outcell: Unit cell vectors (Ang):
       15.000000    0.000000    0.000000
        0.000000   15.000000    0.000000
        0.000000    0.000000   15.000000

outcell: Cell vector modules (Ang)   :   15.000000   15.000000   15.000000
outcell: Cell angles (23,13,12) (deg):     90.0000     90.0000     90.0000
outcell: Cell volume (Ang**3)        :   3375.0000
<dSpData1D:S at geom step 13
  <sparsity:sparsity for geom step 13
    nrows_g=23 nrows=6 sparsity=.2609 nnzs=138, refcount: 7>
  <dData1D:(new from dSpData1D) n=138, refcount: 1>
refcount: 1>
new_DM -- step:    14
Re-using DM from previous geometries...
Number of DMs in history: 1
 DM extrapolation coefficients: 
1   1.00000
New DM after history re-use:
<dSpData2D:SpM extrapolated using coords
  <sparsity:sparsity for geom step 13
    nrows_g=23 nrows=6 sparsity=.2609 nnzs=138, refcount: 9>
  <dData2D:(temp array for extrapolation) n=138 m=1, refcount: 1>
refcount: 1>
No. of atoms with KB's overlaping orbs in proc 0. Max # of overlaps:       3      23

InitMesh: MESH = 216 x 216 x 216 = 10077696
InitMesh: Mesh cutoff (required, used) =   500.000   573.095 Ry
New grid distribution [1]: sub = 2
New grid distribution [2]: sub = 2
New grid distribution [3]: sub = 2
Setting up quadratic distribution...

        iscf     Eharris(eV)        E_KS(eV)     FreeEng(eV)     dDmax    Ef(eV) dHmax(eV)
   scf:    1     -464.776083     -464.788471     -464.788471  0.006397 -5.460910  0.063476
   scf:    2     -464.787766     -464.788302     -464.788302  0.003669 -5.421286  0.108629
   scf:    3     -464.788628     -464.788542     -464.788542  0.002351 -5.446667  0.003534
   scf:    4     -464.788542     -464.788542     -464.788542  0.000170 -5.446081  0.000556
   scf:    5     -464.788543     -464.788543     -464.788543  0.000084 -5.446970  0.003218
   scf:    6     -464.788542     -464.788542     -464.788542  0.000064 -5.446292  0.000072

SCF Convergence by DM+H criterion
max |DM_out - DM_in|         :     0.0000638056
max |H_out - H_in|      (eV) :     0.0000723879
SCF cycle converged after 6 iterations

Using DM_out to compute the final energy and forces
No. of atoms with KB's overlaping orbs in proc 0. Max # of overlaps:       3      23

siesta: E_KS(eV) =             -464.7885

siesta: Atomic forces (eV/Ang):
----------------------------------------
   Tot   -0.000000    0.000000   -0.000512
----------------------------------------
   Max    0.004117
   Res    0.002489    sqrt( Sum f_i^2 / 3N )
----------------------------------------
   Max    0.004117    constrained

Stress tensor Voigt[x,y,z,yz,xz,xy] (kbar):        0.00        0.00        0.00       -0.00       -0.00       -0.00
(Free)E + p*V (eV/cell)     -464.7942
Target enthalpy (eV/cell)     -464.7885

outcoor: Relaxed atomic coordinates (Ang):                  
    7.50000000    7.50000000    7.89815886   1       1  O
    7.50000000    8.27534812    7.30090545   2       2  H
    7.50000000    6.72465188    7.30090545   2       3  H

coxmol: Writing XMOL coordinates into file H2O.xyz                                                                                                                                                                                                                             

siesta: Eigenvalues (eV):
  ik is       eps
   1  1  -24.5503  -12.8102   -8.8061   -6.8138    0.7624    2.9225    8.4410    9.8073   10.2268   11.7678
          12.4367   18.7337   20.4854   22.1719   22.7710   27.1358   38.0528   39.3648   40.3423   43.8352
   44.5653   56.2199   77.7905
siesta: Fermi energy =      -5.446292 eV

siesta: Program's energy decomposition (eV):
siesta: Ebs     =      -105.960214
siesta: Eions   =       645.948886
siesta: Ena     =        74.030078
siesta: Ekin    =       332.398047
siesta: Enl     =      -108.865156
siesta: Eso     =         0.000000
siesta: Edftu   =         0.000000
siesta: DEna    =        -5.480230
siesta: DUscf   =         0.929937
siesta: DUext   =         0.000000
siesta: Ex      =       -99.311166
siesta: Ec      =       -12.541166
siesta: Exc     =      -111.852332
siesta: EbV     =         0.000000
siesta: eta*DQ  =         0.000000
siesta: Emadel  =         0.000000
siesta: Emeta   =         0.000000
siesta: Emolmec =         0.000000
siesta: Ekinion =         0.000000
siesta: Eharris =      -464.788542
siesta: Etot    =      -464.788542
siesta: FreeEng =      -464.788542

siesta: Final energy (eV):
siesta:  Band Struct. =    -105.960214
siesta:       Kinetic =     332.398047
siesta:       Hartree =     492.664953
siesta:         Edftu =       0.000000
siesta:       Eso     =       0.000000
siesta:    Ext. field =       0.000000
siesta:         Exch. =     -99.311166
siesta:         Corr. =     -12.541166
siesta:     Bulk bias =       0.000000
siesta:   Exch.-corr. =    -111.852332
siesta:  Ion-electron =   -1277.145428
siesta:       Ion-ion =      99.146218
siesta:       Ekinion =       0.000000
siesta: D3 dispersion =       0.000000
siesta:         Total =    -464.788542
siesta:         Fermi =      -5.446292

siesta: Stress tensor (static) (eV/Ang**3):
siesta:     0.000000    0.000000   -0.000000
siesta:    -0.000000    0.000002   -0.000000
siesta:    -0.000000   -0.000000    0.000002

siesta: Cell volume =       3375.000000 Ang**3

siesta: Pressure (static):
siesta:                Solid            Molecule  Units
siesta:          -0.00000002         -0.00000001  Ry/Bohr**3
siesta:          -0.00000167         -0.00000082  eV/Ang**3
siesta:          -0.00267965         -0.00130937  kBar

Basis Enthalpy Calculation:
    Basis Pressure for species 1(O) :      0.2000000 GPa
    Basis Pressure for species 2(H) :      0.2000000 GPa

    Orbital volume contribution        =           0.807976 eV
    (Free)E + p_basis*V_orbitals       =        -463.980566 eV
    (Free)Eharris+ p_basis*V_orbitals  =        -463.980566 eV
WARNING: BASIS_ENTHALPY and BASIS_HARRIS_ENTHALPY files are deprecated. They will be removed in future releases.
Please use system_label.BASIS_ENTHALPY in your scripts instead.

siesta: Electric dipole (a.u.)  =   -0.000000    0.000000   -0.598442
siesta: Electric dipole (Debye) =   -0.000000    0.000000   -1.521088

Hirshfeld Atomic Populations:
Atom #   charge [q] valence [e]  Species
     1    -0.264425    6.264425  O
     2     0.132213    0.867787  H
     3     0.132213    0.867787  H
--------------------
 Total     0.000000

dhscf: Vacuum level (max, mean) =    0.684125   -0.005371 eV

cite: Please indicate the Siesta version in published work: 5.4.2
cite: This calculation has made use of features in the following articles
cite: which we encourage you to cite in published work.
cite: (Please see "H2O.bib" for a BibTeX file.)
        Primary SIESTA paper
          DOI: www.doi.org/10.1088/0953-8984/14/11/302


>> End of run:   8-JUL-2026  14:59:31
Job completed
