
     Program PWSCF v.7.3 starts on  5Jan2024 at  8:10:28 

     This program is part of the open-source Quantum ESPRESSO suite
     for quantum simulation of materials; please cite
         "P. Giannozzi et al., J. Phys.:Condens. Matter 21 395502 (2009);
         "P. Giannozzi et al., J. Phys.:Condens. Matter 29 465901 (2017);
         "P. Giannozzi et al., J. Chem. Phys. 152 154105 (2020);
          URL http://www.quantum-espresso.org", 
     in publications or presentations arising from this work. More details at
     http://www.quantum-espresso.org/quote

     Parallel version (MPI), running on   128 processors

     MPI processes distributed on     2 nodes
     482070 MiB available memory on the printing compute node when the environment starts
 
     Reading input from Ni.scf.in

     Current dimensions of program PWSCF are:
     Max number of different atomic species (ntypx) = 10
     Max number of k-points (npk) =  40000
     Max angular momentum in pseudopotentials (lmaxx) =  4
     -----------------------------------------------------------
     List of the nearest neighbors for inter-site interactions V
     -----------------------------------------------------------
     atom 1:  1,  atom 2:  1,    -1     0     0
     atom 1:  1,  atom 2:  1,    -1     0     1
     atom 1:  1,  atom 2:  1,    -1     1     0
     atom 1:  1,  atom 2:  1,     0    -1     0
     atom 1:  1,  atom 2:  1,     0    -1     1
     atom 1:  1,  atom 2:  1,     0     0    -1
     atom 1:  1,  atom 2:  1,     0     0     1
     atom 1:  1,  atom 2:  1,     0     1    -1
     atom 1:  1,  atom 2:  1,     0     1     0
     atom 1:  1,  atom 2:  1,     1    -1     0
     atom 1:  1,  atom 2:  1,     1     0    -1
     atom 1:  1,  atom 2:  1,     1     0     0
 
 
     K-points division:     npool     =      16
     R & G space division:  proc/nbgrp/npool/nimage =       8
     Subspace diagonalization in iterative solution of the eigenvalue problem:
     a serial algorithm will be used

 
     Parallelization info
     --------------------
     sticks:   dense  smooth     PW     G-vecs:    dense   smooth      PW
     Min          72      72     23                 1155     1155     204
     Max          73      73     24                 1158     1158     206
     Sum         583     583    187                 9257     9257    1639
 
     Using Slab Decomposition
 


     bravais-lattice index     =            2
     lattice parameter (alat)  =       6.4800  a.u.
     unit-cell volume          =      68.0244 (a.u.)^3
     number of atoms/cell      =            1
     number of atomic types    =            1
     number of electrons       =        18.00
     number of Kohn-Sham states=           13
     kinetic-energy cutoff     =     100.0000  Ry
     charge density cutoff     =     400.0000  Ry
     scf convergence threshold =      1.0E-08
     mixing beta               =       0.7000
     number of iterations used =            8  plain     mixing
     Exchange-correlation= PBE
                           (   1   4   3   4   0   0   0)

     celldm(1)=   6.480000  celldm(2)=   0.000000  celldm(3)=   0.000000
     celldm(4)=   0.000000  celldm(5)=   0.000000  celldm(6)=   0.000000

     crystal axes: (cart. coord. in units of alat)
               a(1) = (  -0.500000   0.000000   0.500000 )  
               a(2) = (   0.000000   0.500000   0.500000 )  
               a(3) = (  -0.500000   0.500000   0.000000 )  

     reciprocal axes: (cart. coord. in units 2 pi/alat)
               b(1) = ( -1.000000 -1.000000  1.000000 )  
               b(2) = (  1.000000  1.000000  1.000000 )  
               b(3) = ( -1.000000  1.000000 -1.000000 )  


     PseudoPot. # 1 for Ni read from file:
     ~/pseudo/pseudodojo/nc_sr/Ni.upf
     MD5 check sum: Not computed, couldn't open file
     Pseudo is Norm-conserving + core correction, Zval = 18.0
     Generated using ONCVPSP code by D. R. Hamann
     Using radial grid of 1372 points,  6 beta functions with: 
                l(1) =   0
                l(2) =   0
                l(3) =   1
                l(4) =   1
                l(5) =   2
                l(6) =   2

     atomic species   valence    mass     pseudopotential
     Ni               18.00    58.69340     Ni( 1.00)

     Starting magnetic structure 
     atomic species   magnetization
     Ni              0.000

     48 Sym. Ops., with inversion, found


                                    s                        frac. trans.

      isym =  1     identity                                     

 cryst.   s( 1) = (     1          0          0      )
                  (     0          1          0      )
                  (     0          0          1      )

 cart.    s( 1) = (  1.0000000  0.0000000  0.0000000 )
                  (  0.0000000  1.0000000  0.0000000 )
                  (  0.0000000  0.0000000  1.0000000 )


      isym =  2     180 deg rotation - cart. axis [0,0,1]        

 cryst.   s( 2) = (     0          1         -1      )
                  (     1          0         -1      )
                  (     0          0         -1      )

 cart.    s( 2) = ( -1.0000000  0.0000000  0.0000000 )
                  (  0.0000000 -1.0000000  0.0000000 )
                  (  0.0000000  0.0000000  1.0000000 )


      isym =  3     180 deg rotation - cart. axis [0,1,0]        

 cryst.   s( 3) = (    -1          0          0      )
                  (    -1          0          1      )
                  (    -1          1          0      )

 cart.    s( 3) = ( -1.0000000  0.0000000  0.0000000 )
                  (  0.0000000  1.0000000  0.0000000 )
                  (  0.0000000  0.0000000 -1.0000000 )


      isym =  4     180 deg rotation - cart. axis [1,0,0]        

 cryst.   s( 4) = (     0         -1          1      )
                  (     0         -1          0      )
                  (     1         -1          0      )

 cart.    s( 4) = (  1.0000000  0.0000000  0.0000000 )
                  (  0.0000000 -1.0000000  0.0000000 )
                  (  0.0000000  0.0000000 -1.0000000 )


      isym =  5     180 deg rotation - cart. axis [1,1,0]        

 cryst.   s( 5) = (     0         -1          0      )
                  (    -1          0          0      )
                  (     0          0         -1      )

 cart.    s( 5) = (  0.0000000  1.0000000  0.0000000 )
                  (  1.0000000  0.0000000  0.0000000 )
                  (  0.0000000  0.0000000 -1.0000000 )


      isym =  6     180 deg rotation - cart. axis [1,-1,0]       

 cryst.   s( 6) = (    -1          0          1      )
                  (     0         -1          1      )
                  (     0          0          1      )

 cart.    s( 6) = (  0.0000000 -1.0000000  0.0000000 )
                  ( -1.0000000  0.0000000  0.0000000 )
                  (  0.0000000  0.0000000 -1.0000000 )


      isym =  7      90 deg rotation - cart. axis [0,0,-1]       

 cryst.   s( 7) = (     0          1          0      )
                  (     0          1         -1      )
                  (    -1          1          0      )

 cart.    s( 7) = (  0.0000000  1.0000000  0.0000000 )
                  ( -1.0000000  0.0000000  0.0000000 )
                  (  0.0000000  0.0000000  1.0000000 )


      isym =  8      90 deg rotation - cart. axis [0,0,1]        

 cryst.   s( 8) = (     1          0         -1      )
                  (     1          0          0      )
                  (     1         -1          0      )

 cart.    s( 8) = (  0.0000000 -1.0000000  0.0000000 )
                  (  1.0000000  0.0000000  0.0000000 )
                  (  0.0000000  0.0000000  1.0000000 )


      isym =  9     180 deg rotation - cart. axis [1,0,1]        

 cryst.   s( 9) = (    -1          0          0      )
                  (     0          0         -1      )
                  (     0         -1          0      )

 cart.    s( 9) = (  0.0000000  0.0000000  1.0000000 )
                  (  0.0000000 -1.0000000  0.0000000 )
                  (  1.0000000  0.0000000  0.0000000 )


      isym = 10     180 deg rotation - cart. axis [-1,0,1]       

 cryst.   s(10) = (     1          0          0      )
                  (     1         -1          0      )
                  (     1          0         -1      )

 cart.    s(10) = (  0.0000000  0.0000000 -1.0000000 )
                  (  0.0000000 -1.0000000  0.0000000 )
                  ( -1.0000000  0.0000000  0.0000000 )


      isym = 11      90 deg rotation - cart. axis [0,1,0]        

 cryst.   s(11) = (     0          1         -1      )
                  (    -1          1          0      )
                  (     0          1          0      )

 cart.    s(11) = (  0.0000000  0.0000000  1.0000000 )
                  (  0.0000000  1.0000000  0.0000000 )
                  ( -1.0000000  0.0000000  0.0000000 )


      isym = 12      90 deg rotation - cart. axis [0,-1,0]       

 cryst.   s(12) = (     0         -1          1      )
                  (     0          0          1      )
                  (    -1          0          1      )

 cart.    s(12) = (  0.0000000  0.0000000 -1.0000000 )
                  (  0.0000000  1.0000000  0.0000000 )
                  (  1.0000000  0.0000000  0.0000000 )


      isym = 13     180 deg rotation - cart. axis [0,1,1]        

 cryst.   s(13) = (    -1          1          0      )
                  (     0          1          0      )
                  (     0          1         -1      )

 cart.    s(13) = ( -1.0000000  0.0000000  0.0000000 )
                  (  0.0000000  0.0000000  1.0000000 )
                  (  0.0000000  1.0000000  0.0000000 )


      isym = 14     180 deg rotation - cart. axis [0,1,-1]       

 cryst.   s(14) = (     0          0         -1      )
                  (     0         -1          0      )
                  (    -1          0          0      )

 cart.    s(14) = ( -1.0000000  0.0000000  0.0000000 )
                  (  0.0000000  0.0000000 -1.0000000 )
                  (  0.0000000 -1.0000000  0.0000000 )


      isym = 15      90 deg rotation - cart. axis [-1,0,0]       

 cryst.   s(15) = (     0          0          1      )
                  (    -1          0          1      )
                  (     0         -1          1      )

 cart.    s(15) = (  1.0000000  0.0000000  0.0000000 )
                  (  0.0000000  0.0000000  1.0000000 )
                  (  0.0000000 -1.0000000  0.0000000 )


      isym = 16      90 deg rotation - cart. axis [1,0,0]        

 cryst.   s(16) = (     1         -1          0      )
                  (     1          0         -1      )
                  (     1          0          0      )

 cart.    s(16) = (  1.0000000  0.0000000  0.0000000 )
                  (  0.0000000  0.0000000 -1.0000000 )
                  (  0.0000000  1.0000000  0.0000000 )


      isym = 17     120 deg rotation - cart. axis [-1,-1,-1]     

 cryst.   s(17) = (    -1          0          1      )
                  (    -1          1          0      )
                  (    -1          0          0      )

 cart.    s(17) = (  0.0000000  1.0000000  0.0000000 )
                  (  0.0000000  0.0000000  1.0000000 )
                  (  1.0000000  0.0000000  0.0000000 )


      isym = 18     120 deg rotation - cart. axis [-1,1,1]       

 cryst.   s(18) = (     0          1          0      )
                  (     0          0          1      )
                  (     1          0          0      )

 cart.    s(18) = (  0.0000000 -1.0000000  0.0000000 )
                  (  0.0000000  0.0000000  1.0000000 )
                  ( -1.0000000  0.0000000  0.0000000 )


      isym = 19     120 deg rotation - cart. axis [1,1,-1]       

 cryst.   s(19) = (     1          0         -1      )
                  (     0          0         -1      )
                  (     0          1         -1      )

 cart.    s(19) = (  0.0000000  1.0000000  0.0000000 )
                  (  0.0000000  0.0000000 -1.0000000 )
                  ( -1.0000000  0.0000000  0.0000000 )


      isym = 20     120 deg rotation - cart. axis [1,-1,1]       

 cryst.   s(20) = (     0         -1          0      )
                  (     1         -1          0      )
                  (     0         -1          1      )

 cart.    s(20) = (  0.0000000 -1.0000000  0.0000000 )
                  (  0.0000000  0.0000000 -1.0000000 )
                  (  1.0000000  0.0000000  0.0000000 )


      isym = 21     120 deg rotation - cart. axis [1,1,1]        

 cryst.   s(21) = (     0          0         -1      )
                  (     0          1         -1      )
                  (     1          0         -1      )

 cart.    s(21) = (  0.0000000  0.0000000  1.0000000 )
                  (  1.0000000  0.0000000  0.0000000 )
                  (  0.0000000  1.0000000  0.0000000 )


      isym = 22     120 deg rotation - cart. axis [-1,1,-1]      

 cryst.   s(22) = (    -1          1          0      )
                  (    -1          0          0      )
                  (    -1          0          1      )

 cart.    s(22) = (  0.0000000  0.0000000  1.0000000 )
                  ( -1.0000000  0.0000000  0.0000000 )
                  (  0.0000000 -1.0000000  0.0000000 )


      isym = 23     120 deg rotation - cart. axis [1,-1,-1]      

 cryst.   s(23) = (     0          0          1      )
                  (     1          0          0      )
                  (     0          1          0      )

 cart.    s(23) = (  0.0000000  0.0000000 -1.0000000 )
                  ( -1.0000000  0.0000000  0.0000000 )
                  (  0.0000000  1.0000000  0.0000000 )


      isym = 24     120 deg rotation - cart. axis [-1,-1,1]      

 cryst.   s(24) = (     1         -1          0      )
                  (     0         -1          1      )
                  (     0         -1          0      )

 cart.    s(24) = (  0.0000000  0.0000000 -1.0000000 )
                  (  1.0000000  0.0000000  0.0000000 )
                  (  0.0000000 -1.0000000  0.0000000 )


      isym = 25     inversion                                    

 cryst.   s(25) = (    -1          0          0      )
                  (     0         -1          0      )
                  (     0          0         -1      )

 cart.    s(25) = ( -1.0000000  0.0000000  0.0000000 )
                  (  0.0000000 -1.0000000  0.0000000 )
                  (  0.0000000  0.0000000 -1.0000000 )


      isym = 26     inv. 180 deg rotation - cart. axis [0,0,1]   

 cryst.   s(26) = (     0         -1          1      )
                  (    -1          0          1      )
                  (     0          0          1      )

 cart.    s(26) = (  1.0000000  0.0000000  0.0000000 )
                  (  0.0000000  1.0000000  0.0000000 )
                  (  0.0000000  0.0000000 -1.0000000 )


      isym = 27     inv. 180 deg rotation - cart. axis [0,1,0]   

 cryst.   s(27) = (     1          0          0      )
                  (     1          0         -1      )
                  (     1         -1          0      )

 cart.    s(27) = (  1.0000000  0.0000000  0.0000000 )
                  (  0.0000000 -1.0000000  0.0000000 )
                  (  0.0000000  0.0000000  1.0000000 )


      isym = 28     inv. 180 deg rotation - cart. axis [1,0,0]   

 cryst.   s(28) = (     0          1         -1      )
                  (     0          1          0      )
                  (    -1          1          0      )

 cart.    s(28) = ( -1.0000000  0.0000000  0.0000000 )
                  (  0.0000000  1.0000000  0.0000000 )
                  (  0.0000000  0.0000000  1.0000000 )


      isym = 29     inv. 180 deg rotation - cart. axis [1,1,0]   

 cryst.   s(29) = (     0          1          0      )
                  (     1          0          0      )
                  (     0          0          1      )

 cart.    s(29) = (  0.0000000 -1.0000000  0.0000000 )
                  ( -1.0000000  0.0000000  0.0000000 )
                  (  0.0000000  0.0000000  1.0000000 )


      isym = 30     inv. 180 deg rotation - cart. axis [1,-1,0]  

 cryst.   s(30) = (     1          0         -1      )
                  (     0          1         -1      )
                  (     0          0         -1      )

 cart.    s(30) = (  0.0000000  1.0000000  0.0000000 )
                  (  1.0000000  0.0000000  0.0000000 )
                  (  0.0000000  0.0000000  1.0000000 )


      isym = 31     inv.  90 deg rotation - cart. axis [0,0,-1]  

 cryst.   s(31) = (     0         -1          0      )
                  (     0         -1          1      )
                  (     1         -1          0      )

 cart.    s(31) = (  0.0000000 -1.0000000  0.0000000 )
                  (  1.0000000  0.0000000  0.0000000 )
                  (  0.0000000  0.0000000 -1.0000000 )


      isym = 32     inv.  90 deg rotation - cart. axis [0,0,1]   

 cryst.   s(32) = (    -1          0          1      )
                  (    -1          0          0      )
                  (    -1          1          0      )

 cart.    s(32) = (  0.0000000  1.0000000  0.0000000 )
                  ( -1.0000000  0.0000000  0.0000000 )
                  (  0.0000000  0.0000000 -1.0000000 )


      isym = 33     inv. 180 deg rotation - cart. axis [1,0,1]   

 cryst.   s(33) = (     1          0          0      )
                  (     0          0          1      )
                  (     0          1          0      )

 cart.    s(33) = (  0.0000000  0.0000000 -1.0000000 )
                  (  0.0000000  1.0000000  0.0000000 )
                  ( -1.0000000  0.0000000  0.0000000 )


      isym = 34     inv. 180 deg rotation - cart. axis [-1,0,1]  

 cryst.   s(34) = (    -1          0          0      )
                  (    -1          1          0      )
                  (    -1          0          1      )

 cart.    s(34) = (  0.0000000  0.0000000  1.0000000 )
                  (  0.0000000  1.0000000  0.0000000 )
                  (  1.0000000  0.0000000  0.0000000 )


      isym = 35     inv.  90 deg rotation - cart. axis [0,1,0]   

 cryst.   s(35) = (     0         -1          1      )
                  (     1         -1          0      )
                  (     0         -1          0      )

 cart.    s(35) = (  0.0000000  0.0000000 -1.0000000 )
                  (  0.0000000 -1.0000000  0.0000000 )
                  (  1.0000000  0.0000000  0.0000000 )


      isym = 36     inv.  90 deg rotation - cart. axis [0,-1,0]  

 cryst.   s(36) = (     0          1         -1      )
                  (     0          0         -1      )
                  (     1          0         -1      )

 cart.    s(36) = (  0.0000000  0.0000000  1.0000000 )
                  (  0.0000000 -1.0000000  0.0000000 )
                  ( -1.0000000  0.0000000  0.0000000 )


      isym = 37     inv. 180 deg rotation - cart. axis [0,1,1]   

 cryst.   s(37) = (     1         -1          0      )
                  (     0         -1          0      )
                  (     0         -1          1      )

 cart.    s(37) = (  1.0000000  0.0000000  0.0000000 )
                  (  0.0000000  0.0000000 -1.0000000 )
                  (  0.0000000 -1.0000000  0.0000000 )


      isym = 38     inv. 180 deg rotation - cart. axis [0,1,-1]  

 cryst.   s(38) = (     0          0          1      )
                  (     0          1          0      )
                  (     1          0          0      )

 cart.    s(38) = (  1.0000000  0.0000000  0.0000000 )
                  (  0.0000000  0.0000000  1.0000000 )
                  (  0.0000000  1.0000000  0.0000000 )


      isym = 39     inv.  90 deg rotation - cart. axis [-1,0,0]  

 cryst.   s(39) = (     0          0         -1      )
                  (     1          0         -1      )
                  (     0          1         -1      )

 cart.    s(39) = ( -1.0000000  0.0000000  0.0000000 )
                  (  0.0000000  0.0000000 -1.0000000 )
                  (  0.0000000  1.0000000  0.0000000 )


      isym = 40     inv.  90 deg rotation - cart. axis [1,0,0]   

 cryst.   s(40) = (    -1          1          0      )
                  (    -1          0          1      )
                  (    -1          0          0      )

 cart.    s(40) = ( -1.0000000  0.0000000  0.0000000 )
                  (  0.0000000  0.0000000  1.0000000 )
                  (  0.0000000 -1.0000000  0.0000000 )


      isym = 41     inv. 120 deg rotation - cart. axis [-1,-1,-1]

 cryst.   s(41) = (     1          0         -1      )
                  (     1         -1          0      )
                  (     1          0          0      )

 cart.    s(41) = (  0.0000000 -1.0000000  0.0000000 )
                  (  0.0000000  0.0000000 -1.0000000 )
                  ( -1.0000000  0.0000000  0.0000000 )


      isym = 42     inv. 120 deg rotation - cart. axis [-1,1,1]  

 cryst.   s(42) = (     0         -1          0      )
                  (     0          0         -1      )
                  (    -1          0          0      )

 cart.    s(42) = (  0.0000000  1.0000000  0.0000000 )
                  (  0.0000000  0.0000000 -1.0000000 )
                  (  1.0000000  0.0000000  0.0000000 )


      isym = 43     inv. 120 deg rotation - cart. axis [1,1,-1]  

 cryst.   s(43) = (    -1          0          1      )
                  (     0          0          1      )
                  (     0         -1          1      )

 cart.    s(43) = (  0.0000000 -1.0000000  0.0000000 )
                  (  0.0000000  0.0000000  1.0000000 )
                  (  1.0000000  0.0000000  0.0000000 )


      isym = 44     inv. 120 deg rotation - cart. axis [1,-1,1]  

 cryst.   s(44) = (     0          1          0      )
                  (    -1          1          0      )
                  (     0          1         -1      )

 cart.    s(44) = (  0.0000000  1.0000000  0.0000000 )
                  (  0.0000000  0.0000000  1.0000000 )
                  ( -1.0000000  0.0000000  0.0000000 )


      isym = 45     inv. 120 deg rotation - cart. axis [1,1,1]   

 cryst.   s(45) = (     0          0          1      )
                  (     0         -1          1      )
                  (    -1          0          1      )

 cart.    s(45) = (  0.0000000  0.0000000 -1.0000000 )
                  ( -1.0000000  0.0000000  0.0000000 )
                  (  0.0000000 -1.0000000  0.0000000 )


      isym = 46     inv. 120 deg rotation - cart. axis [-1,1,-1] 

 cryst.   s(46) = (     1         -1          0      )
                  (     1          0          0      )
                  (     1          0         -1      )

 cart.    s(46) = (  0.0000000  0.0000000 -1.0000000 )
                  (  1.0000000  0.0000000  0.0000000 )
                  (  0.0000000  1.0000000  0.0000000 )


      isym = 47     inv. 120 deg rotation - cart. axis [1,-1,-1] 

 cryst.   s(47) = (     0          0         -1      )
                  (    -1          0          0      )
                  (     0         -1          0      )

 cart.    s(47) = (  0.0000000  0.0000000  1.0000000 )
                  (  1.0000000  0.0000000  0.0000000 )
                  (  0.0000000 -1.0000000  0.0000000 )


      isym = 48     inv. 120 deg rotation - cart. axis [-1,-1,1] 

 cryst.   s(48) = (    -1          1          0      )
                  (     0          1         -1      )
                  (     0          1          0      )

 cart.    s(48) = (  0.0000000  0.0000000  1.0000000 )
                  ( -1.0000000  0.0000000  0.0000000 )
                  (  0.0000000  1.0000000  0.0000000 )


     point group O_h (m-3m) 
     there are 10 classes
     the character table:

       E     8C3   3C2   6C4   6C2'  i     8S6   3s_h  6S4   6s_d 
A_1g   1.00  1.00  1.00  1.00  1.00  1.00  1.00  1.00  1.00  1.00
A_2g   1.00  1.00  1.00 -1.00 -1.00  1.00  1.00  1.00 -1.00 -1.00
E_g    2.00 -1.00  2.00  0.00  0.00  2.00 -1.00  2.00  0.00  0.00
T_1g   3.00  0.00 -1.00  1.00 -1.00  3.00  0.00 -1.00  1.00 -1.00
T_2g   3.00  0.00 -1.00 -1.00  1.00  3.00  0.00 -1.00 -1.00  1.00
A_1u   1.00  1.00  1.00  1.00  1.00 -1.00 -1.00 -1.00 -1.00 -1.00
A_2u   1.00  1.00  1.00 -1.00 -1.00 -1.00 -1.00 -1.00  1.00  1.00
E_u    2.00 -1.00  2.00  0.00  0.00 -2.00  1.00 -2.00  0.00  0.00
T_1u   3.00  0.00 -1.00  1.00 -1.00 -3.00  0.00  1.00 -1.00  1.00
T_2u   3.00  0.00 -1.00 -1.00  1.00 -3.00  0.00  1.00  1.00 -1.00

     the symmetry operations in each class and the name of the first element:

     E        1
          identity                                               
     8C3     17   19   20   18   24   21   22   23
          120 deg rotation - cart. axis [-1,-1,-1]               
     3C2      2    4    3
          180 deg rotation - cart. axis [0,0,1]                  
     6C4      7    8   15   16   12   11
           90 deg rotation - cart. axis [0,0,-1]                 
     6C2'     5    6   14   13   10    9
          180 deg rotation - cart. axis [1,1,0]                  
     i       25
          inversion                                              
     8S6     41   43   44   42   48   45   46   47
          inv. 120 deg rotation - cart. axis [-1,-1,-1]          
     3s_h    26   28   27
          inv. 180 deg rotation - cart. axis [0,0,1]             
     6S4     31   32   39   40   36   35
          inv.  90 deg rotation - cart. axis [0,0,-1]            
     6s_d    29   30   38   37   34   33
          inv. 180 deg rotation - cart. axis [1,1,0]             

   Cartesian axes

     site n.     atom                  positions (alat units)
         1        Ni     tau(   1) = (   0.0000000   0.0000000   0.0000000  )

   Crystallographic axes

     site n.     atom                  positions (cryst. coord.)
         1        Ni     tau(   1) = (  0.0000000  0.0000000  0.0000000  )

     number of k points=   120  Marzari-Vanderbilt smearing, width (Ry)=  0.0200
                       cart. coord. in units 2pi/alat
        k(    1) = (   0.0000000   0.0000000   0.0000000), wk =   0.0002963
        k(    2) = (  -0.0666667   0.0666667  -0.0666667), wk =   0.0023704
        k(    3) = (  -0.1333333   0.1333333  -0.1333333), wk =   0.0023704
        k(    4) = (  -0.2000000   0.2000000  -0.2000000), wk =   0.0023704
        k(    5) = (  -0.2666667   0.2666667  -0.2666667), wk =   0.0023704
        k(    6) = (  -0.3333333   0.3333333  -0.3333333), wk =   0.0023704
        k(    7) = (  -0.4000000   0.4000000  -0.4000000), wk =   0.0023704
        k(    8) = (  -0.4666667   0.4666667  -0.4666667), wk =   0.0023704
        k(    9) = (   0.0000000   0.1333333   0.0000000), wk =   0.0017778
        k(   10) = (  -0.0666667   0.2000000  -0.0666667), wk =   0.0071111
        k(   11) = (  -0.1333333   0.2666667  -0.1333333), wk =   0.0071111
        k(   12) = (  -0.2000000   0.3333333  -0.2000000), wk =   0.0071111
        k(   13) = (  -0.2666667   0.4000000  -0.2666667), wk =   0.0071111
        k(   14) = (  -0.3333333   0.4666667  -0.3333333), wk =   0.0071111
        k(   15) = (  -0.4000000   0.5333333  -0.4000000), wk =   0.0071111
        k(   16) = (   0.5333333  -0.4000000   0.5333333), wk =   0.0071111
        k(   17) = (   0.4666667  -0.3333333   0.4666667), wk =   0.0071111
        k(   18) = (   0.4000000  -0.2666667   0.4000000), wk =   0.0071111
        k(   19) = (   0.3333333  -0.2000000   0.3333333), wk =   0.0071111
        k(   20) = (   0.2666667  -0.1333333   0.2666667), wk =   0.0071111
        k(   21) = (   0.2000000  -0.0666667   0.2000000), wk =   0.0071111
        k(   22) = (   0.1333333   0.0000000   0.1333333), wk =   0.0035556
        k(   23) = (   0.0000000   0.2666667   0.0000000), wk =   0.0017778
        k(   24) = (  -0.0666667   0.3333333  -0.0666667), wk =   0.0071111
        k(   25) = (  -0.1333333   0.4000000  -0.1333333), wk =   0.0071111
        k(   26) = (  -0.2000000   0.4666667  -0.2000000), wk =   0.0071111
        k(   27) = (  -0.2666667   0.5333333  -0.2666667), wk =   0.0071111
        k(   28) = (  -0.3333333   0.6000000  -0.3333333), wk =   0.0071111
        k(   29) = (   0.6000000  -0.3333333   0.6000000), wk =   0.0071111
        k(   30) = (   0.5333333  -0.2666667   0.5333333), wk =   0.0071111
        k(   31) = (   0.4666667  -0.2000000   0.4666667), wk =   0.0071111
        k(   32) = (   0.4000000  -0.1333333   0.4000000), wk =   0.0071111
        k(   33) = (   0.3333333  -0.0666667   0.3333333), wk =   0.0071111
        k(   34) = (   0.2666667   0.0000000   0.2666667), wk =   0.0035556
        k(   35) = (   0.0000000   0.4000000   0.0000000), wk =   0.0017778
        k(   36) = (  -0.0666667   0.4666667  -0.0666667), wk =   0.0071111
        k(   37) = (  -0.1333333   0.5333333  -0.1333333), wk =   0.0071111
        k(   38) = (  -0.2000000   0.6000000  -0.2000000), wk =   0.0071111
        k(   39) = (  -0.2666667   0.6666667  -0.2666667), wk =   0.0071111
        k(   40) = (   0.6666667  -0.2666667   0.6666667), wk =   0.0071111
        k(   41) = (   0.6000000  -0.2000000   0.6000000), wk =   0.0071111
        k(   42) = (   0.5333333  -0.1333333   0.5333333), wk =   0.0071111
        k(   43) = (   0.4666667  -0.0666667   0.4666667), wk =   0.0071111
        k(   44) = (   0.4000000   0.0000000   0.4000000), wk =   0.0035556
        k(   45) = (   0.0000000   0.5333333   0.0000000), wk =   0.0017778
        k(   46) = (  -0.0666667   0.6000000  -0.0666667), wk =   0.0071111
        k(   47) = (  -0.1333333   0.6666667  -0.1333333), wk =   0.0071111
        k(   48) = (  -0.2000000   0.7333333  -0.2000000), wk =   0.0071111
        k(   49) = (   0.7333333  -0.2000000   0.7333333), wk =   0.0071111
        k(   50) = (   0.6666667  -0.1333333   0.6666667), wk =   0.0071111
        k(   51) = (   0.6000000  -0.0666667   0.6000000), wk =   0.0071111
        k(   52) = (   0.5333333  -0.0000000   0.5333333), wk =   0.0035556
        k(   53) = (   0.0000000   0.6666667   0.0000000), wk =   0.0017778
        k(   54) = (  -0.0666667   0.7333333  -0.0666667), wk =   0.0071111
        k(   55) = (  -0.1333333   0.8000000  -0.1333333), wk =   0.0071111
        k(   56) = (   0.8000000  -0.1333333   0.8000000), wk =   0.0071111
        k(   57) = (   0.7333333  -0.0666667   0.7333333), wk =   0.0071111
        k(   58) = (   0.6666667  -0.0000000   0.6666667), wk =   0.0035556
        k(   59) = (   0.0000000   0.8000000   0.0000000), wk =   0.0017778
        k(   60) = (  -0.0666667   0.8666667  -0.0666667), wk =   0.0071111
        k(   61) = (   0.8666667  -0.0666667   0.8666667), wk =   0.0071111
        k(   62) = (   0.8000000   0.0000000   0.8000000), wk =   0.0035556
        k(   63) = (   0.0000000   0.9333333   0.0000000), wk =   0.0017778
        k(   64) = (   0.9333333   0.0000000   0.9333333), wk =   0.0035556
        k(   65) = (  -0.1333333   0.2666667   0.0000000), wk =   0.0071111
        k(   66) = (  -0.2000000   0.3333333  -0.0666667), wk =   0.0142222
        k(   67) = (  -0.2666667   0.4000000  -0.1333333), wk =   0.0142222
        k(   68) = (  -0.3333333   0.4666667  -0.2000000), wk =   0.0142222
        k(   69) = (  -0.4000000   0.5333333  -0.2666667), wk =   0.0142222
        k(   70) = (   0.5333333  -0.4000000   0.6666667), wk =   0.0142222
        k(   71) = (  -0.1333333   0.4000000   0.0000000), wk =   0.0071111
        k(   72) = (  -0.2000000   0.4666667  -0.0666667), wk =   0.0142222
        k(   73) = (  -0.2666667   0.5333333  -0.1333333), wk =   0.0142222
        k(   74) = (  -0.3333333   0.6000000  -0.2000000), wk =   0.0142222
        k(   75) = (   0.6000000  -0.3333333   0.7333333), wk =   0.0142222
        k(   76) = (   0.5333333  -0.2666667   0.6666667), wk =   0.0142222
        k(   77) = (   0.4666667  -0.2000000   0.6000000), wk =   0.0142222
        k(   78) = (   0.4000000  -0.1333333   0.5333333), wk =   0.0142222
        k(   79) = (   0.3333333  -0.0666667   0.4666667), wk =   0.0142222
        k(   80) = (   0.2666667   0.0000000   0.4000000), wk =   0.0071111
        k(   81) = (  -0.1333333   0.5333333   0.0000000), wk =   0.0071111
        k(   82) = (  -0.2000000   0.6000000  -0.0666667), wk =   0.0142222
        k(   83) = (  -0.2666667   0.6666667  -0.1333333), wk =   0.0142222
        k(   84) = (   0.6666667  -0.2666667   0.8000000), wk =   0.0142222
        k(   85) = (   0.6000000  -0.2000000   0.7333333), wk =   0.0142222
        k(   86) = (   0.5333333  -0.1333333   0.6666667), wk =   0.0142222
        k(   87) = (   0.4666667  -0.0666667   0.6000000), wk =   0.0142222
        k(   88) = (   0.4000000   0.0000000   0.5333333), wk =   0.0071111
        k(   89) = (  -0.1333333   0.6666667  -0.0000000), wk =   0.0071111
        k(   90) = (  -0.2000000   0.7333333  -0.0666667), wk =   0.0142222
        k(   91) = (   0.7333333  -0.2000000   0.8666667), wk =   0.0142222
        k(   92) = (   0.6666667  -0.1333333   0.8000000), wk =   0.0142222
        k(   93) = (   0.6000000  -0.0666667   0.7333333), wk =   0.0142222
        k(   94) = (   0.5333333  -0.0000000   0.6666667), wk =   0.0071111
        k(   95) = (  -0.1333333   0.8000000   0.0000000), wk =   0.0071111
        k(   96) = (   0.8000000  -0.1333333   0.9333333), wk =   0.0142222
        k(   97) = (   0.7333333  -0.0666667   0.8666667), wk =   0.0142222
        k(   98) = (   0.6666667   0.0000000   0.8000000), wk =   0.0071111
        k(   99) = (   0.8666667  -0.0666667   1.0000000), wk =   0.0071111
        k(  100) = (   0.8000000   0.0000000   0.9333333), wk =   0.0071111
        k(  101) = (  -0.2666667   0.5333333   0.0000000), wk =   0.0071111
        k(  102) = (  -0.3333333   0.6000000  -0.0666667), wk =   0.0142222
        k(  103) = (   0.6000000  -0.3333333   0.8666667), wk =   0.0142222
        k(  104) = (   0.5333333  -0.2666667   0.8000000), wk =   0.0142222
        k(  105) = (  -0.2666667   0.6666667   0.0000000), wk =   0.0071111
        k(  106) = (   0.6666667  -0.2666667   0.9333333), wk =   0.0142222
        k(  107) = (   0.6000000  -0.2000000   0.8666667), wk =   0.0142222
        k(  108) = (   0.5333333  -0.1333333   0.8000000), wk =   0.0142222
        k(  109) = (   0.4666667  -0.0666667   0.7333333), wk =   0.0142222
        k(  110) = (   0.4000000   0.0000000   0.6666667), wk =   0.0071111
        k(  111) = (   0.7333333  -0.2000000   1.0000000), wk =   0.0071111
        k(  112) = (   0.6666667  -0.1333333   0.9333333), wk =   0.0142222
        k(  113) = (   0.6000000  -0.0666667   0.8666667), wk =   0.0142222
        k(  114) = (   0.5333333   0.0000000   0.8000000), wk =   0.0071111
        k(  115) = (   0.7333333  -0.0666667   1.0000000), wk =   0.0071111
        k(  116) = (   0.6666667   0.0000000   0.9333333), wk =   0.0071111
        k(  117) = (   0.6000000  -0.2000000   1.0000000), wk =   0.0071111
        k(  118) = (   0.5333333  -0.1333333   0.9333333), wk =   0.0142222
        k(  119) = (   0.6000000  -0.0666667   1.0000000), wk =   0.0071111
        k(  120) = (   0.5333333  -0.0000000   0.9333333), wk =   0.0071111

                       cryst. coord.
        k(    1) = (   0.0000000   0.0000000   0.0000000), wk =   0.0002963
        k(    2) = (   0.0000000   0.0000000   0.0666667), wk =   0.0023704
        k(    3) = (   0.0000000   0.0000000   0.1333333), wk =   0.0023704
        k(    4) = (   0.0000000   0.0000000   0.2000000), wk =   0.0023704
        k(    5) = (   0.0000000   0.0000000   0.2666667), wk =   0.0023704
        k(    6) = (   0.0000000   0.0000000   0.3333333), wk =   0.0023704
        k(    7) = (   0.0000000   0.0000000   0.4000000), wk =   0.0023704
        k(    8) = (   0.0000000   0.0000000   0.4666667), wk =   0.0023704
        k(    9) = (   0.0000000   0.0666667   0.0666667), wk =   0.0017778
        k(   10) = (   0.0000000   0.0666667   0.1333333), wk =   0.0071111
        k(   11) = (   0.0000000   0.0666667   0.2000000), wk =   0.0071111
        k(   12) = (   0.0000000   0.0666667   0.2666667), wk =   0.0071111
        k(   13) = (   0.0000000   0.0666667   0.3333333), wk =   0.0071111
        k(   14) = (   0.0000000   0.0666667   0.4000000), wk =   0.0071111
        k(   15) = (   0.0000000   0.0666667   0.4666667), wk =   0.0071111
        k(   16) = (   0.0000000   0.0666667  -0.4666667), wk =   0.0071111
        k(   17) = (   0.0000000   0.0666667  -0.4000000), wk =   0.0071111
        k(   18) = (   0.0000000   0.0666667  -0.3333333), wk =   0.0071111
        k(   19) = (   0.0000000   0.0666667  -0.2666667), wk =   0.0071111
        k(   20) = (   0.0000000   0.0666667  -0.2000000), wk =   0.0071111
        k(   21) = (   0.0000000   0.0666667  -0.1333333), wk =   0.0071111
        k(   22) = (   0.0000000   0.0666667  -0.0666667), wk =   0.0035556
        k(   23) = (   0.0000000   0.1333333   0.1333333), wk =   0.0017778
        k(   24) = (   0.0000000   0.1333333   0.2000000), wk =   0.0071111
        k(   25) = (   0.0000000   0.1333333   0.2666667), wk =   0.0071111
        k(   26) = (   0.0000000   0.1333333   0.3333333), wk =   0.0071111
        k(   27) = (   0.0000000   0.1333333   0.4000000), wk =   0.0071111
        k(   28) = (   0.0000000   0.1333333   0.4666667), wk =   0.0071111
        k(   29) = (   0.0000000   0.1333333  -0.4666667), wk =   0.0071111
        k(   30) = (   0.0000000   0.1333333  -0.4000000), wk =   0.0071111
        k(   31) = (   0.0000000   0.1333333  -0.3333333), wk =   0.0071111
        k(   32) = (   0.0000000   0.1333333  -0.2666667), wk =   0.0071111
        k(   33) = (   0.0000000   0.1333333  -0.2000000), wk =   0.0071111
        k(   34) = (   0.0000000   0.1333333  -0.1333333), wk =   0.0035556
        k(   35) = (   0.0000000   0.2000000   0.2000000), wk =   0.0017778
        k(   36) = (   0.0000000   0.2000000   0.2666667), wk =   0.0071111
        k(   37) = (   0.0000000   0.2000000   0.3333333), wk =   0.0071111
        k(   38) = (   0.0000000   0.2000000   0.4000000), wk =   0.0071111
        k(   39) = (   0.0000000   0.2000000   0.4666667), wk =   0.0071111
        k(   40) = (   0.0000000   0.2000000  -0.4666667), wk =   0.0071111
        k(   41) = (   0.0000000   0.2000000  -0.4000000), wk =   0.0071111
        k(   42) = (   0.0000000   0.2000000  -0.3333333), wk =   0.0071111
        k(   43) = (   0.0000000   0.2000000  -0.2666667), wk =   0.0071111
        k(   44) = (   0.0000000   0.2000000  -0.2000000), wk =   0.0035556
        k(   45) = (   0.0000000   0.2666667   0.2666667), wk =   0.0017778
        k(   46) = (   0.0000000   0.2666667   0.3333333), wk =   0.0071111
        k(   47) = (   0.0000000   0.2666667   0.4000000), wk =   0.0071111
        k(   48) = (   0.0000000   0.2666667   0.4666667), wk =   0.0071111
        k(   49) = (   0.0000000   0.2666667  -0.4666667), wk =   0.0071111
        k(   50) = (   0.0000000   0.2666667  -0.4000000), wk =   0.0071111
        k(   51) = (   0.0000000   0.2666667  -0.3333333), wk =   0.0071111
        k(   52) = (   0.0000000   0.2666667  -0.2666667), wk =   0.0035556
        k(   53) = (   0.0000000   0.3333333   0.3333333), wk =   0.0017778
        k(   54) = (   0.0000000   0.3333333   0.4000000), wk =   0.0071111
        k(   55) = (   0.0000000   0.3333333   0.4666667), wk =   0.0071111
        k(   56) = (   0.0000000   0.3333333  -0.4666667), wk =   0.0071111
        k(   57) = (   0.0000000   0.3333333  -0.4000000), wk =   0.0071111
        k(   58) = (   0.0000000   0.3333333  -0.3333333), wk =   0.0035556
        k(   59) = (   0.0000000   0.4000000   0.4000000), wk =   0.0017778
        k(   60) = (   0.0000000   0.4000000   0.4666667), wk =   0.0071111
        k(   61) = (   0.0000000   0.4000000  -0.4666667), wk =   0.0071111
        k(   62) = (   0.0000000   0.4000000  -0.4000000), wk =   0.0035556
        k(   63) = (   0.0000000   0.4666667   0.4666667), wk =   0.0017778
        k(   64) = (   0.0000000   0.4666667  -0.4666667), wk =   0.0035556
        k(   65) = (   0.0666667   0.1333333   0.2000000), wk =   0.0071111
        k(   66) = (   0.0666667   0.1333333   0.2666667), wk =   0.0142222
        k(   67) = (   0.0666667   0.1333333   0.3333333), wk =   0.0142222
        k(   68) = (   0.0666667   0.1333333   0.4000000), wk =   0.0142222
        k(   69) = (   0.0666667   0.1333333   0.4666667), wk =   0.0142222
        k(   70) = (   0.0666667   0.1333333  -0.4666667), wk =   0.0142222
        k(   71) = (   0.0666667   0.2000000   0.2666667), wk =   0.0071111
        k(   72) = (   0.0666667   0.2000000   0.3333333), wk =   0.0142222
        k(   73) = (   0.0666667   0.2000000   0.4000000), wk =   0.0142222
        k(   74) = (   0.0666667   0.2000000   0.4666667), wk =   0.0142222
        k(   75) = (   0.0666667   0.2000000  -0.4666667), wk =   0.0142222
        k(   76) = (   0.0666667   0.2000000  -0.4000000), wk =   0.0142222
        k(   77) = (   0.0666667   0.2000000  -0.3333333), wk =   0.0142222
        k(   78) = (   0.0666667   0.2000000  -0.2666667), wk =   0.0142222
        k(   79) = (   0.0666667   0.2000000  -0.2000000), wk =   0.0142222
        k(   80) = (   0.0666667   0.2000000  -0.1333333), wk =   0.0071111
        k(   81) = (   0.0666667   0.2666667   0.3333333), wk =   0.0071111
        k(   82) = (   0.0666667   0.2666667   0.4000000), wk =   0.0142222
        k(   83) = (   0.0666667   0.2666667   0.4666667), wk =   0.0142222
        k(   84) = (   0.0666667   0.2666667  -0.4666667), wk =   0.0142222
        k(   85) = (   0.0666667   0.2666667  -0.4000000), wk =   0.0142222
        k(   86) = (   0.0666667   0.2666667  -0.3333333), wk =   0.0142222
        k(   87) = (   0.0666667   0.2666667  -0.2666667), wk =   0.0142222
        k(   88) = (   0.0666667   0.2666667  -0.2000000), wk =   0.0071111
        k(   89) = (   0.0666667   0.3333333   0.4000000), wk =   0.0071111
        k(   90) = (   0.0666667   0.3333333   0.4666667), wk =   0.0142222
        k(   91) = (   0.0666667   0.3333333  -0.4666667), wk =   0.0142222
        k(   92) = (   0.0666667   0.3333333  -0.4000000), wk =   0.0142222
        k(   93) = (   0.0666667   0.3333333  -0.3333333), wk =   0.0142222
        k(   94) = (   0.0666667   0.3333333  -0.2666667), wk =   0.0071111
        k(   95) = (   0.0666667   0.4000000   0.4666667), wk =   0.0071111
        k(   96) = (   0.0666667   0.4000000  -0.4666667), wk =   0.0142222
        k(   97) = (   0.0666667   0.4000000  -0.4000000), wk =   0.0142222
        k(   98) = (   0.0666667   0.4000000  -0.3333333), wk =   0.0071111
        k(   99) = (   0.0666667   0.4666667  -0.4666667), wk =   0.0071111
        k(  100) = (   0.0666667   0.4666667  -0.4000000), wk =   0.0071111
        k(  101) = (   0.1333333   0.2666667   0.4000000), wk =   0.0071111
        k(  102) = (   0.1333333   0.2666667   0.4666667), wk =   0.0142222
        k(  103) = (   0.1333333   0.2666667  -0.4666667), wk =   0.0142222
        k(  104) = (   0.1333333   0.2666667  -0.4000000), wk =   0.0142222
        k(  105) = (   0.1333333   0.3333333   0.4666667), wk =   0.0071111
        k(  106) = (   0.1333333   0.3333333  -0.4666667), wk =   0.0142222
        k(  107) = (   0.1333333   0.3333333  -0.4000000), wk =   0.0142222
        k(  108) = (   0.1333333   0.3333333  -0.3333333), wk =   0.0142222
        k(  109) = (   0.1333333   0.3333333  -0.2666667), wk =   0.0142222
        k(  110) = (   0.1333333   0.3333333  -0.2000000), wk =   0.0071111
        k(  111) = (   0.1333333   0.4000000  -0.4666667), wk =   0.0071111
        k(  112) = (   0.1333333   0.4000000  -0.4000000), wk =   0.0142222
        k(  113) = (   0.1333333   0.4000000  -0.3333333), wk =   0.0142222
        k(  114) = (   0.1333333   0.4000000  -0.2666667), wk =   0.0071111
        k(  115) = (   0.1333333   0.4666667  -0.4000000), wk =   0.0071111
        k(  116) = (   0.1333333   0.4666667  -0.3333333), wk =   0.0071111
        k(  117) = (   0.2000000   0.4000000  -0.4000000), wk =   0.0071111
        k(  118) = (   0.2000000   0.4000000  -0.3333333), wk =   0.0142222
        k(  119) = (   0.2000000   0.4666667  -0.3333333), wk =   0.0071111
        k(  120) = (   0.2000000   0.4666667  -0.2666667), wk =   0.0071111

     Dense  grid:     9257 G-vectors     FFT dimensions: (  30,  30,  30)

     Dynamical RAM for                 wfc:       0.03 MB

     Dynamical RAM for     wfc (w. buffer):       0.45 MB

     Dynamical RAM for             V proj.:       0.01 MB

     Dynamical RAM for  V proj. (w. buff.):       0.17 MB

     Dynamical RAM for           str. fact:       0.02 MB

     Dynamical RAM for           local pot:       0.00 MB

     Dynamical RAM for          nlocal pot:       0.04 MB

     Dynamical RAM for                qrad:       1.61 MB

     Dynamical RAM for          rho,v,vnew:       0.27 MB

     Dynamical RAM for               rhoin:       0.09 MB

     Dynamical RAM for            rho*nmix:       0.57 MB

     Dynamical RAM for           G-vectors:       0.08 MB

     Dynamical RAM for          h,s,v(r/c):       0.03 MB

     Dynamical RAM for          <psi|beta>:       0.00 MB

     Dynamical RAM for                 psi:       0.06 MB

     Dynamical RAM for                hpsi:       0.06 MB

     Dynamical RAM for      wfcinit/wfcrot:       0.06 MB

     Estimated static dynamical RAM per process >       2.93 MB

     Estimated max dynamical RAM per process >       3.64 MB

     Estimated total dynamical RAM >     398.13 MB
     Generating pointlists ...
     new r_m :   0.2917 (alat units)  1.8901 (a.u.) for type    1

     Initial potential from superposition of free atoms

     starting charge      17.9998, renormalised to      18.0000
 
     =========================
     E(+U+V) =  0.000000000 Ry
     =========================

     Atomic wfcs used for DFT+U+V projectors are orthogonalized

     Starting wfcs are random

     total cpu time spent up to now is        3.4 secs

     Self-consistent Calculation

     iteration #  1     ecut=   100.00 Ry     beta= 0.70
     Davidson diagonalization with overlap

---- Real-time Memory Report at c_bands before calling an iterative solver
           790 MiB given to the printing process from OS
             0 MiB allocation reported by mallinfo(arena+hblkhd)
        441480 MiB available memory on the node where the printing process lives
------------------
     ethr =  1.00E-02,  avg # of iterations =  8.6
                                        
     -----------------------------------
     V[atom i, atom j, #orb(i), #orb(j)]
     -----------------------------------
     [  1,  1,  5,  5  ]
     [  0     0     0  ]
      11.4901  11.4901  11.4901  11.4901  11.4901
      11.4901  11.4901  11.4901  11.4901  11.4901
      11.4901  11.4901  11.4901  11.4901  11.4901
      11.4901  11.4901  11.4901  11.4901  11.4901
      11.4901  11.4901  11.4901  11.4901  11.4901
 
     [  1,  1,  5,  5  ]
     [ -1     0     0  ]
       1.8138   1.8138   1.8138   1.8138   1.8138
       1.8138   1.8138   1.8138   1.8138   1.8138
       1.8138   1.8138   1.8138   1.8138   1.8138
       1.8138   1.8138   1.8138   1.8138   1.8138
       1.8138   1.8138   1.8138   1.8138   1.8138
 
     [  1,  1,  5,  5  ]
     [ -1     0     1  ]
       1.8138   1.8138   1.8138   1.8138   1.8138
       1.8138   1.8138   1.8138   1.8138   1.8138
       1.8138   1.8138   1.8138   1.8138   1.8138
       1.8138   1.8138   1.8138   1.8138   1.8138
       1.8138   1.8138   1.8138   1.8138   1.8138
 
     [  1,  1,  5,  5  ]
     [ -1     1     0  ]
       1.8138   1.8138   1.8138   1.8138   1.8138
       1.8138   1.8138   1.8138   1.8138   1.8138
       1.8138   1.8138   1.8138   1.8138   1.8138
       1.8138   1.8138   1.8138   1.8138   1.8138
       1.8138   1.8138   1.8138   1.8138   1.8138
 
     [  1,  1,  5,  5  ]
     [  0    -1     0  ]
       1.8138   1.8138   1.8138   1.8138   1.8138
       1.8138   1.8138   1.8138   1.8138   1.8138
       1.8138   1.8138   1.8138   1.8138   1.8138
       1.8138   1.8138   1.8138   1.8138   1.8138
       1.8138   1.8138   1.8138   1.8138   1.8138
 
     [  1,  1,  5,  5  ]
     [  0    -1     1  ]
       1.8138   1.8138   1.8138   1.8138   1.8138
       1.8138   1.8138   1.8138   1.8138   1.8138
       1.8138   1.8138   1.8138   1.8138   1.8138
       1.8138   1.8138   1.8138   1.8138   1.8138
       1.8138   1.8138   1.8138   1.8138   1.8138
 
     [  1,  1,  5,  5  ]
     [  0     0    -1  ]
       1.8138   1.8138   1.8138   1.8138   1.8138
       1.8138   1.8138   1.8138   1.8138   1.8138
       1.8138   1.8138   1.8138   1.8138   1.8138
       1.8138   1.8138   1.8138   1.8138   1.8138
       1.8138   1.8138   1.8138   1.8138   1.8138
 
     [  1,  1,  5,  5  ]
     [  0     0     1  ]
       1.8138   1.8138   1.8138   1.8138   1.8138
       1.8138   1.8138   1.8138   1.8138   1.8138
       1.8138   1.8138   1.8138   1.8138   1.8138
       1.8138   1.8138   1.8138   1.8138   1.8138
       1.8138   1.8138   1.8138   1.8138   1.8138
 
     [  1,  1,  5,  5  ]
     [  0     1    -1  ]
       1.8138   1.8138   1.8138   1.8138   1.8138
       1.8138   1.8138   1.8138   1.8138   1.8138
       1.8138   1.8138   1.8138   1.8138   1.8138
       1.8138   1.8138   1.8138   1.8138   1.8138
       1.8138   1.8138   1.8138   1.8138   1.8138
 
     [  1,  1,  5,  5  ]
     [  0     1     0  ]
       1.8138   1.8138   1.8138   1.8138   1.8138
       1.8138   1.8138   1.8138   1.8138   1.8138
       1.8138   1.8138   1.8138   1.8138   1.8138
       1.8138   1.8138   1.8138   1.8138   1.8138
       1.8138   1.8138   1.8138   1.8138   1.8138
 
     [  1,  1,  5,  5  ]
     [  1    -1     0  ]
       1.8138   1.8138   1.8138   1.8138   1.8138
       1.8138   1.8138   1.8138   1.8138   1.8138
       1.8138   1.8138   1.8138   1.8138   1.8138
       1.8138   1.8138   1.8138   1.8138   1.8138
       1.8138   1.8138   1.8138   1.8138   1.8138
 
     [  1,  1,  5,  5  ]
     [  1     0    -1  ]
       1.8138   1.8138   1.8138   1.8138   1.8138
       1.8138   1.8138   1.8138   1.8138   1.8138
       1.8138   1.8138   1.8138   1.8138   1.8138
       1.8138   1.8138   1.8138   1.8138   1.8138
       1.8138   1.8138   1.8138   1.8138   1.8138
 
     [  1,  1,  5,  5  ]
     [  1     0     0  ]
       1.8138   1.8138   1.8138   1.8138   1.8138
       1.8138   1.8138   1.8138   1.8138   1.8138
       1.8138   1.8138   1.8138   1.8138   1.8138
       1.8138   1.8138   1.8138   1.8138   1.8138
       1.8138   1.8138   1.8138   1.8138   1.8138
 

     Threshold (ethr) on eigenvalues was too large:
     Diagonalizing with lowered threshold

     Davidson diagonalization with overlap

---- Real-time Memory Report at c_bands before calling an iterative solver
           801 MiB given to the printing process from OS
             0 MiB allocation reported by mallinfo(arena+hblkhd)
        441442 MiB available memory on the node where the printing process lives
------------------
     ethr =  2.69E-04,  avg # of iterations =  3.0
                                        
     -----------------------------------
     V[atom i, atom j, #orb(i), #orb(j)]
     -----------------------------------
     [  1,  1,  5,  5  ]
     [  0     0     0  ]
      14.9437  14.9437  14.9437  14.9437  14.9437
      14.9437  14.9437  14.9437  14.9437  14.9437
      14.9437  14.9437  14.9437  14.9437  14.9437
      14.9437  14.9437  14.9437  14.9437  14.9437
      14.9437  14.9437  14.9437  14.9437  14.9437
 
     [  1,  1,  5,  5  ]
     [ -1     0     0  ]
       2.3590   2.3590   2.3590   2.3590   2.3590
       2.3590   2.3590   2.3590   2.3590   2.3590
       2.3590   2.3590   2.3590   2.3590   2.3590
       2.3590   2.3590   2.3590   2.3590   2.3590
       2.3590   2.3590   2.3590   2.3590   2.3590
 
     [  1,  1,  5,  5  ]
     [ -1     0     1  ]
       2.3590   2.3590   2.3590   2.3590   2.3590
       2.3590   2.3590   2.3590   2.3590   2.3590
       2.3590   2.3590   2.3590   2.3590   2.3590
       2.3590   2.3590   2.3590   2.3590   2.3590
       2.3590   2.3590   2.3590   2.3590   2.3590
 
     [  1,  1,  5,  5  ]
     [ -1     1     0  ]
       2.3590   2.3590   2.3590   2.3590   2.3590
       2.3590   2.3590   2.3590   2.3590   2.3590
       2.3590   2.3590   2.3590   2.3590   2.3590
       2.3590   2.3590   2.3590   2.3590   2.3590
       2.3590   2.3590   2.3590   2.3590   2.3590
 
     [  1,  1,  5,  5  ]
     [  0    -1     0  ]
       2.3590   2.3590   2.3590   2.3590   2.3590
       2.3590   2.3590   2.3590   2.3590   2.3590
       2.3590   2.3590   2.3590   2.3590   2.3590
       2.3590   2.3590   2.3590   2.3590   2.3590
       2.3590   2.3590   2.3590   2.3590   2.3590
 
     [  1,  1,  5,  5  ]
     [  0    -1     1  ]
       2.3590   2.3590   2.3590   2.3590   2.3590
       2.3590   2.3590   2.3590   2.3590   2.3590
       2.3590   2.3590   2.3590   2.3590   2.3590
       2.3590   2.3590   2.3590   2.3590   2.3590
       2.3590   2.3590   2.3590   2.3590   2.3590
 
     [  1,  1,  5,  5  ]
     [  0     0    -1  ]
       2.3590   2.3590   2.3590   2.3590   2.3590
       2.3590   2.3590   2.3590   2.3590   2.3590
       2.3590   2.3590   2.3590   2.3590   2.3590
       2.3590   2.3590   2.3590   2.3590   2.3590
       2.3590   2.3590   2.3590   2.3590   2.3590
 
     [  1,  1,  5,  5  ]
     [  0     0     1  ]
       2.3590   2.3590   2.3590   2.3590   2.3590
       2.3590   2.3590   2.3590   2.3590   2.3590
       2.3590   2.3590   2.3590   2.3590   2.3590
       2.3590   2.3590   2.3590   2.3590   2.3590
       2.3590   2.3590   2.3590   2.3590   2.3590
 
     [  1,  1,  5,  5  ]
     [  0     1    -1  ]
       2.3590   2.3590   2.3590   2.3590   2.3590
       2.3590   2.3590   2.3590   2.3590   2.3590
       2.3590   2.3590   2.3590   2.3590   2.3590
       2.3590   2.3590   2.3590   2.3590   2.3590
       2.3590   2.3590   2.3590   2.3590   2.3590
 
     [  1,  1,  5,  5  ]
     [  0     1     0  ]
       2.3590   2.3590   2.3590   2.3590   2.3590
       2.3590   2.3590   2.3590   2.3590   2.3590
       2.3590   2.3590   2.3590   2.3590   2.3590
       2.3590   2.3590   2.3590   2.3590   2.3590
       2.3590   2.3590   2.3590   2.3590   2.3590
 
     [  1,  1,  5,  5  ]
     [  1    -1     0  ]
       2.3590   2.3590   2.3590   2.3590   2.3590
       2.3590   2.3590   2.3590   2.3590   2.3590
       2.3590   2.3590   2.3590   2.3590   2.3590
       2.3590   2.3590   2.3590   2.3590   2.3590
       2.3590   2.3590   2.3590   2.3590   2.3590
 
     [  1,  1,  5,  5  ]
     [  1     0    -1  ]
       2.3590   2.3590   2.3590   2.3590   2.3590
       2.3590   2.3590   2.3590   2.3590   2.3590
       2.3590   2.3590   2.3590   2.3590   2.3590
       2.3590   2.3590   2.3590   2.3590   2.3590
       2.3590   2.3590   2.3590   2.3590   2.3590
 
     [  1,  1,  5,  5  ]
     [  1     0     0  ]
       2.3590   2.3590   2.3590   2.3590   2.3590
       2.3590   2.3590   2.3590   2.3590   2.3590
       2.3590   2.3590   2.3590   2.3590   2.3590
       2.3590   2.3590   2.3590   2.3590   2.3590
       2.3590   2.3590   2.3590   2.3590   2.3590
 
 
     =========================
     E(+U+V) =  0.575800311 Ry
     =========================

     total cpu time spent up to now is       37.1 secs

     total energy              =    -335.03209957 Ry
     estimated scf accuracy    <       0.00590260 Ry
     Hubbard accuracy          <       0.57580031 Ry

     total magnetization       =     0.00 Bohr mag/cell
     absolute magnetization    =     0.00 Bohr mag/cell

     iteration #  2     ecut=   100.00 Ry     beta= 0.70
     Davidson diagonalization with overlap

---- Real-time Memory Report at c_bands before calling an iterative solver
           803 MiB given to the printing process from OS
             0 MiB allocation reported by mallinfo(arena+hblkhd)
        441387 MiB available memory on the node where the printing process lives
------------------
     ethr =  3.28E-05,  avg # of iterations =  2.2
                                        
     -----------------------------------
     V[atom i, atom j, #orb(i), #orb(j)]
     -----------------------------------
     [  1,  1,  5,  5  ]
     [  0     0     0  ]
      16.5230  16.5230  16.5230  16.5230  16.5230
      16.5230  16.5230  16.5230  16.5230  16.5230
      16.5230  16.5230  16.5230  16.5230  16.5230
      16.5230  16.5230  16.5230  16.5230  16.5230
      16.5230  16.5230  16.5230  16.5230  16.5230
 
     [  1,  1,  5,  5  ]
     [ -1     0     0  ]
       2.6080   2.6080   2.6080   2.6080   2.6080
       2.6080   2.6080   2.6080   2.6080   2.6080
       2.6080   2.6080   2.6080   2.6080   2.6080
       2.6080   2.6080   2.6080   2.6080   2.6080
       2.6080   2.6080   2.6080   2.6080   2.6080
 
     [  1,  1,  5,  5  ]
     [ -1     0     1  ]
       2.6080   2.6080   2.6080   2.6080   2.6080
       2.6080   2.6080   2.6080   2.6080   2.6080
       2.6080   2.6080   2.6080   2.6080   2.6080
       2.6080   2.6080   2.6080   2.6080   2.6080
       2.6080   2.6080   2.6080   2.6080   2.6080
 
     [  1,  1,  5,  5  ]
     [ -1     1     0  ]
       2.6080   2.6080   2.6080   2.6080   2.6080
       2.6080   2.6080   2.6080   2.6080   2.6080
       2.6080   2.6080   2.6080   2.6080   2.6080
       2.6080   2.6080   2.6080   2.6080   2.6080
       2.6080   2.6080   2.6080   2.6080   2.6080
 
     [  1,  1,  5,  5  ]
     [  0    -1     0  ]
       2.6080   2.6080   2.6080   2.6080   2.6080
       2.6080   2.6080   2.6080   2.6080   2.6080
       2.6080   2.6080   2.6080   2.6080   2.6080
       2.6080   2.6080   2.6080   2.6080   2.6080
       2.6080   2.6080   2.6080   2.6080   2.6080
 
     [  1,  1,  5,  5  ]
     [  0    -1     1  ]
       2.6080   2.6080   2.6080   2.6080   2.6080
       2.6080   2.6080   2.6080   2.6080   2.6080
       2.6080   2.6080   2.6080   2.6080   2.6080
       2.6080   2.6080   2.6080   2.6080   2.6080
       2.6080   2.6080   2.6080   2.6080   2.6080
 
     [  1,  1,  5,  5  ]
     [  0     0    -1  ]
       2.6080   2.6080   2.6080   2.6080   2.6080
       2.6080   2.6080   2.6080   2.6080   2.6080
       2.6080   2.6080   2.6080   2.6080   2.6080
       2.6080   2.6080   2.6080   2.6080   2.6080
       2.6080   2.6080   2.6080   2.6080   2.6080
 
     [  1,  1,  5,  5  ]
     [  0     0     1  ]
       2.6080   2.6080   2.6080   2.6080   2.6080
       2.6080   2.6080   2.6080   2.6080   2.6080
       2.6080   2.6080   2.6080   2.6080   2.6080
       2.6080   2.6080   2.6080   2.6080   2.6080
       2.6080   2.6080   2.6080   2.6080   2.6080
 
     [  1,  1,  5,  5  ]
     [  0     1    -1  ]
       2.6080   2.6080   2.6080   2.6080   2.6080
       2.6080   2.6080   2.6080   2.6080   2.6080
       2.6080   2.6080   2.6080   2.6080   2.6080
       2.6080   2.6080   2.6080   2.6080   2.6080
       2.6080   2.6080   2.6080   2.6080   2.6080
 
     [  1,  1,  5,  5  ]
     [  0     1     0  ]
       2.6080   2.6080   2.6080   2.6080   2.6080
       2.6080   2.6080   2.6080   2.6080   2.6080
       2.6080   2.6080   2.6080   2.6080   2.6080
       2.6080   2.6080   2.6080   2.6080   2.6080
       2.6080   2.6080   2.6080   2.6080   2.6080
 
     [  1,  1,  5,  5  ]
     [  1    -1     0  ]
       2.6080   2.6080   2.6080   2.6080   2.6080
       2.6080   2.6080   2.6080   2.6080   2.6080
       2.6080   2.6080   2.6080   2.6080   2.6080
       2.6080   2.6080   2.6080   2.6080   2.6080
       2.6080   2.6080   2.6080   2.6080   2.6080
 
     [  1,  1,  5,  5  ]
     [  1     0    -1  ]
       2.6080   2.6080   2.6080   2.6080   2.6080
       2.6080   2.6080   2.6080   2.6080   2.6080
       2.6080   2.6080   2.6080   2.6080   2.6080
       2.6080   2.6080   2.6080   2.6080   2.6080
       2.6080   2.6080   2.6080   2.6080   2.6080
 
     [  1,  1,  5,  5  ]
     [  1     0     0  ]
       2.6080   2.6080   2.6080   2.6080   2.6080
       2.6080   2.6080   2.6080   2.6080   2.6080
       2.6080   2.6080   2.6080   2.6080   2.6080
       2.6080   2.6080   2.6080   2.6080   2.6080
       2.6080   2.6080   2.6080   2.6080   2.6080
 
 
     =========================
     E(+U+V) =  0.647498244 Ry
     =========================

     total cpu time spent up to now is       53.7 secs

     total energy              =    -335.13189752 Ry
     estimated scf accuracy    <       0.23653780 Ry
     Hubbard accuracy          <       0.07169793 Ry

     total magnetization       =     0.00 Bohr mag/cell
     absolute magnetization    =     0.00 Bohr mag/cell

     iteration #  3     ecut=   100.00 Ry     beta= 0.70
     Davidson diagonalization with overlap

---- Real-time Memory Report at c_bands before calling an iterative solver
           804 MiB given to the printing process from OS
             0 MiB allocation reported by mallinfo(arena+hblkhd)
        441375 MiB available memory on the node where the printing process lives
------------------
     ethr =  3.28E-05,  avg # of iterations =  1.4
                                        
     -----------------------------------
     V[atom i, atom j, #orb(i), #orb(j)]
     -----------------------------------
     [  1,  1,  5,  5  ]
     [  0     0     0  ]
      17.1294  17.1294  17.1294  17.1294  17.1294
      17.1294  17.1294  17.1294  17.1294  17.1294
      17.1294  17.1294  17.1294  17.1294  17.1294
      17.1294  17.1294  17.1294  17.1294  17.1294
      17.1294  17.1294  17.1294  17.1294  17.1294
 
     [  1,  1,  5,  5  ]
     [ -1     0     0  ]
       2.7035   2.7035   2.7035   2.7035   2.7035
       2.7035   2.7035   2.7035   2.7035   2.7035
       2.7035   2.7035   2.7035   2.7035   2.7035
       2.7035   2.7035   2.7035   2.7035   2.7035
       2.7035   2.7035   2.7035   2.7035   2.7035
 
     [  1,  1,  5,  5  ]
     [ -1     0     1  ]
       2.7035   2.7035   2.7035   2.7035   2.7035
       2.7035   2.7035   2.7035   2.7035   2.7035
       2.7035   2.7035   2.7035   2.7035   2.7035
       2.7035   2.7035   2.7035   2.7035   2.7035
       2.7035   2.7035   2.7035   2.7035   2.7035
 
     [  1,  1,  5,  5  ]
     [ -1     1     0  ]
       2.7035   2.7035   2.7035   2.7035   2.7035
       2.7035   2.7035   2.7035   2.7035   2.7035
       2.7035   2.7035   2.7035   2.7035   2.7035
       2.7035   2.7035   2.7035   2.7035   2.7035
       2.7035   2.7035   2.7035   2.7035   2.7035
 
     [  1,  1,  5,  5  ]
     [  0    -1     0  ]
       2.7035   2.7035   2.7035   2.7035   2.7035
       2.7035   2.7035   2.7035   2.7035   2.7035
       2.7035   2.7035   2.7035   2.7035   2.7035
       2.7035   2.7035   2.7035   2.7035   2.7035
       2.7035   2.7035   2.7035   2.7035   2.7035
 
     [  1,  1,  5,  5  ]
     [  0    -1     1  ]
       2.7035   2.7035   2.7035   2.7035   2.7035
       2.7035   2.7035   2.7035   2.7035   2.7035
       2.7035   2.7035   2.7035   2.7035   2.7035
       2.7035   2.7035   2.7035   2.7035   2.7035
       2.7035   2.7035   2.7035   2.7035   2.7035
 
     [  1,  1,  5,  5  ]
     [  0     0    -1  ]
       2.7035   2.7035   2.7035   2.7035   2.7035
       2.7035   2.7035   2.7035   2.7035   2.7035
       2.7035   2.7035   2.7035   2.7035   2.7035
       2.7035   2.7035   2.7035   2.7035   2.7035
       2.7035   2.7035   2.7035   2.7035   2.7035
 
     [  1,  1,  5,  5  ]
     [  0     0     1  ]
       2.7035   2.7035   2.7035   2.7035   2.7035
       2.7035   2.7035   2.7035   2.7035   2.7035
       2.7035   2.7035   2.7035   2.7035   2.7035
       2.7035   2.7035   2.7035   2.7035   2.7035
       2.7035   2.7035   2.7035   2.7035   2.7035
 
     [  1,  1,  5,  5  ]
     [  0     1    -1  ]
       2.7035   2.7035   2.7035   2.7035   2.7035
       2.7035   2.7035   2.7035   2.7035   2.7035
       2.7035   2.7035   2.7035   2.7035   2.7035
       2.7035   2.7035   2.7035   2.7035   2.7035
       2.7035   2.7035   2.7035   2.7035   2.7035
 
     [  1,  1,  5,  5  ]
     [  0     1     0  ]
       2.7035   2.7035   2.7035   2.7035   2.7035
       2.7035   2.7035   2.7035   2.7035   2.7035
       2.7035   2.7035   2.7035   2.7035   2.7035
       2.7035   2.7035   2.7035   2.7035   2.7035
       2.7035   2.7035   2.7035   2.7035   2.7035
 
     [  1,  1,  5,  5  ]
     [  1    -1     0  ]
       2.7035   2.7035   2.7035   2.7035   2.7035
       2.7035   2.7035   2.7035   2.7035   2.7035
       2.7035   2.7035   2.7035   2.7035   2.7035
       2.7035   2.7035   2.7035   2.7035   2.7035
       2.7035   2.7035   2.7035   2.7035   2.7035
 
     [  1,  1,  5,  5  ]
     [  1     0    -1  ]
       2.7035   2.7035   2.7035   2.7035   2.7035
       2.7035   2.7035   2.7035   2.7035   2.7035
       2.7035   2.7035   2.7035   2.7035   2.7035
       2.7035   2.7035   2.7035   2.7035   2.7035
       2.7035   2.7035   2.7035   2.7035   2.7035
 
     [  1,  1,  5,  5  ]
     [  1     0     0  ]
       2.7035   2.7035   2.7035   2.7035   2.7035
       2.7035   2.7035   2.7035   2.7035   2.7035
       2.7035   2.7035   2.7035   2.7035   2.7035
       2.7035   2.7035   2.7035   2.7035   2.7035
       2.7035   2.7035   2.7035   2.7035   2.7035
 
 
     =========================
     E(+U+V) =  0.590192337 Ry
     =========================

     total cpu time spent up to now is       70.2 secs

     total energy              =    -335.09564740 Ry
     estimated scf accuracy    <       0.33018688 Ry
     Hubbard accuracy          <       0.05730591 Ry

     total magnetization       =     0.00 Bohr mag/cell
     absolute magnetization    =     0.00 Bohr mag/cell

     iteration #  4     ecut=   100.00 Ry     beta= 0.70
     Davidson diagonalization with overlap

---- Real-time Memory Report at c_bands before calling an iterative solver
           806 MiB given to the printing process from OS
             0 MiB allocation reported by mallinfo(arena+hblkhd)
        441386 MiB available memory on the node where the printing process lives
------------------
     ethr =  3.28E-05,  avg # of iterations =  2.0
                                        
     -----------------------------------
     V[atom i, atom j, #orb(i), #orb(j)]
     -----------------------------------
     [  1,  1,  5,  5  ]
     [  0     0     0  ]
      17.2356  17.2356  17.2356  17.2356  17.2356
      17.2356  17.2356  17.2356  17.2356  17.2356
      17.2356  17.2356  17.2356  17.2356  17.2356
      17.2356  17.2356  17.2356  17.2356  17.2356
      17.2356  17.2356  17.2356  17.2356  17.2356
 
     [  1,  1,  5,  5  ]
     [ -1     0     0  ]
       2.7202   2.7202   2.7202   2.7202   2.7202
       2.7202   2.7202   2.7202   2.7202   2.7202
       2.7202   2.7202   2.7202   2.7202   2.7202
       2.7202   2.7202   2.7202   2.7202   2.7202
       2.7202   2.7202   2.7202   2.7202   2.7202
 
     [  1,  1,  5,  5  ]
     [ -1     0     1  ]
       2.7202   2.7202   2.7202   2.7202   2.7202
       2.7202   2.7202   2.7202   2.7202   2.7202
       2.7202   2.7202   2.7202   2.7202   2.7202
       2.7202   2.7202   2.7202   2.7202   2.7202
       2.7202   2.7202   2.7202   2.7202   2.7202
 
     [  1,  1,  5,  5  ]
     [ -1     1     0  ]
       2.7202   2.7202   2.7202   2.7202   2.7202
       2.7202   2.7202   2.7202   2.7202   2.7202
       2.7202   2.7202   2.7202   2.7202   2.7202
       2.7202   2.7202   2.7202   2.7202   2.7202
       2.7202   2.7202   2.7202   2.7202   2.7202
 
     [  1,  1,  5,  5  ]
     [  0    -1     0  ]
       2.7202   2.7202   2.7202   2.7202   2.7202
       2.7202   2.7202   2.7202   2.7202   2.7202
       2.7202   2.7202   2.7202   2.7202   2.7202
       2.7202   2.7202   2.7202   2.7202   2.7202
       2.7202   2.7202   2.7202   2.7202   2.7202
 
     [  1,  1,  5,  5  ]
     [  0    -1     1  ]
       2.7202   2.7202   2.7202   2.7202   2.7202
       2.7202   2.7202   2.7202   2.7202   2.7202
       2.7202   2.7202   2.7202   2.7202   2.7202
       2.7202   2.7202   2.7202   2.7202   2.7202
       2.7202   2.7202   2.7202   2.7202   2.7202
 
     [  1,  1,  5,  5  ]
     [  0     0    -1  ]
       2.7202   2.7202   2.7202   2.7202   2.7202
       2.7202   2.7202   2.7202   2.7202   2.7202
       2.7202   2.7202   2.7202   2.7202   2.7202
       2.7202   2.7202   2.7202   2.7202   2.7202
       2.7202   2.7202   2.7202   2.7202   2.7202
 
     [  1,  1,  5,  5  ]
     [  0     0     1  ]
       2.7202   2.7202   2.7202   2.7202   2.7202
       2.7202   2.7202   2.7202   2.7202   2.7202
       2.7202   2.7202   2.7202   2.7202   2.7202
       2.7202   2.7202   2.7202   2.7202   2.7202
       2.7202   2.7202   2.7202   2.7202   2.7202
 
     [  1,  1,  5,  5  ]
     [  0     1    -1  ]
       2.7202   2.7202   2.7202   2.7202   2.7202
       2.7202   2.7202   2.7202   2.7202   2.7202
       2.7202   2.7202   2.7202   2.7202   2.7202
       2.7202   2.7202   2.7202   2.7202   2.7202
       2.7202   2.7202   2.7202   2.7202   2.7202
 
     [  1,  1,  5,  5  ]
     [  0     1     0  ]
       2.7202   2.7202   2.7202   2.7202   2.7202
       2.7202   2.7202   2.7202   2.7202   2.7202
       2.7202   2.7202   2.7202   2.7202   2.7202
       2.7202   2.7202   2.7202   2.7202   2.7202
       2.7202   2.7202   2.7202   2.7202   2.7202
 
     [  1,  1,  5,  5  ]
     [  1    -1     0  ]
       2.7202   2.7202   2.7202   2.7202   2.7202
       2.7202   2.7202   2.7202   2.7202   2.7202
       2.7202   2.7202   2.7202   2.7202   2.7202
       2.7202   2.7202   2.7202   2.7202   2.7202
       2.7202   2.7202   2.7202   2.7202   2.7202
 
     [  1,  1,  5,  5  ]
     [  1     0    -1  ]
       2.7202   2.7202   2.7202   2.7202   2.7202
       2.7202   2.7202   2.7202   2.7202   2.7202
       2.7202   2.7202   2.7202   2.7202   2.7202
       2.7202   2.7202   2.7202   2.7202   2.7202
       2.7202   2.7202   2.7202   2.7202   2.7202
 
     [  1,  1,  5,  5  ]
     [  1     0     0  ]
       2.7202   2.7202   2.7202   2.7202   2.7202
       2.7202   2.7202   2.7202   2.7202   2.7202
       2.7202   2.7202   2.7202   2.7202   2.7202
       2.7202   2.7202   2.7202   2.7202   2.7202
       2.7202   2.7202   2.7202   2.7202   2.7202
 
 
     =========================
     E(+U+V) =  0.443366265 Ry
     =========================

     total cpu time spent up to now is       86.9 secs

     total energy              =    -335.05589260 Ry
     estimated scf accuracy    <       0.18996979 Ry
     Hubbard accuracy          <       0.14682607 Ry

     total magnetization       =     0.00 Bohr mag/cell
     absolute magnetization    =     0.00 Bohr mag/cell

     iteration #  5     ecut=   100.00 Ry     beta= 0.70
     Davidson diagonalization with overlap

---- Real-time Memory Report at c_bands before calling an iterative solver
           807 MiB given to the printing process from OS
             0 MiB allocation reported by mallinfo(arena+hblkhd)
        441380 MiB available memory on the node where the printing process lives
------------------
     ethr =  3.28E-05,  avg # of iterations =  3.1
                                        
     -----------------------------------
     V[atom i, atom j, #orb(i), #orb(j)]
     -----------------------------------
     [  1,  1,  5,  5  ]
     [  0     0     0  ]
      17.0565  17.0565  17.0565  17.0565  17.0565
      17.0565  17.0565  17.0565  17.0565  17.0565
      17.0565  17.0565  17.0565  17.0565  17.0565
      17.0565  17.0565  17.0565  17.0565  17.0565
      17.0565  17.0565  17.0565  17.0565  17.0565
 
     [  1,  1,  5,  5  ]
     [ -1     0     0  ]
       2.6921   2.6921   2.6921   2.6921   2.6921
       2.6921   2.6921   2.6921   2.6921   2.6921
       2.6921   2.6921   2.6921   2.6921   2.6921
       2.6921   2.6921   2.6921   2.6921   2.6921
       2.6921   2.6921   2.6921   2.6921   2.6921
 
     [  1,  1,  5,  5  ]
     [ -1     0     1  ]
       2.6921   2.6921   2.6921   2.6921   2.6921
       2.6921   2.6921   2.6921   2.6921   2.6921
       2.6921   2.6921   2.6921   2.6921   2.6921
       2.6921   2.6921   2.6921   2.6921   2.6921
       2.6921   2.6921   2.6921   2.6921   2.6921
 
     [  1,  1,  5,  5  ]
     [ -1     1     0  ]
       2.6921   2.6921   2.6921   2.6921   2.6921
       2.6921   2.6921   2.6921   2.6921   2.6921
       2.6921   2.6921   2.6921   2.6921   2.6921
       2.6921   2.6921   2.6921   2.6921   2.6921
       2.6921   2.6921   2.6921   2.6921   2.6921
 
     [  1,  1,  5,  5  ]
     [  0    -1     0  ]
       2.6921   2.6921   2.6921   2.6921   2.6921
       2.6921   2.6921   2.6921   2.6921   2.6921
       2.6921   2.6921   2.6921   2.6921   2.6921
       2.6921   2.6921   2.6921   2.6921   2.6921
       2.6921   2.6921   2.6921   2.6921   2.6921
 
     [  1,  1,  5,  5  ]
     [  0    -1     1  ]
       2.6921   2.6921   2.6921   2.6921   2.6921
       2.6921   2.6921   2.6921   2.6921   2.6921
       2.6921   2.6921   2.6921   2.6921   2.6921
       2.6921   2.6921   2.6921   2.6921   2.6921
       2.6921   2.6921   2.6921   2.6921   2.6921
 
     [  1,  1,  5,  5  ]
     [  0     0    -1  ]
       2.6921   2.6921   2.6921   2.6921   2.6921
       2.6921   2.6921   2.6921   2.6921   2.6921
       2.6921   2.6921   2.6921   2.6921   2.6921
       2.6921   2.6921   2.6921   2.6921   2.6921
       2.6921   2.6921   2.6921   2.6921   2.6921
 
     [  1,  1,  5,  5  ]
     [  0     0     1  ]
       2.6921   2.6921   2.6921   2.6921   2.6921
       2.6921   2.6921   2.6921   2.6921   2.6921
       2.6921   2.6921   2.6921   2.6921   2.6921
       2.6921   2.6921   2.6921   2.6921   2.6921
       2.6921   2.6921   2.6921   2.6921   2.6921
 
     [  1,  1,  5,  5  ]
     [  0     1    -1  ]
       2.6921   2.6921   2.6921   2.6921   2.6921
       2.6921   2.6921   2.6921   2.6921   2.6921
       2.6921   2.6921   2.6921   2.6921   2.6921
       2.6921   2.6921   2.6921   2.6921   2.6921
       2.6921   2.6921   2.6921   2.6921   2.6921
 
     [  1,  1,  5,  5  ]
     [  0     1     0  ]
       2.6921   2.6921   2.6921   2.6921   2.6921
       2.6921   2.6921   2.6921   2.6921   2.6921
       2.6921   2.6921   2.6921   2.6921   2.6921
       2.6921   2.6921   2.6921   2.6921   2.6921
       2.6921   2.6921   2.6921   2.6921   2.6921
 
     [  1,  1,  5,  5  ]
     [  1    -1     0  ]
       2.6921   2.6921   2.6921   2.6921   2.6921
       2.6921   2.6921   2.6921   2.6921   2.6921
       2.6921   2.6921   2.6921   2.6921   2.6921
       2.6921   2.6921   2.6921   2.6921   2.6921
       2.6921   2.6921   2.6921   2.6921   2.6921
 
     [  1,  1,  5,  5  ]
     [  1     0    -1  ]
       2.6921   2.6921   2.6921   2.6921   2.6921
       2.6921   2.6921   2.6921   2.6921   2.6921
       2.6921   2.6921   2.6921   2.6921   2.6921
       2.6921   2.6921   2.6921   2.6921   2.6921
       2.6921   2.6921   2.6921   2.6921   2.6921
 
     [  1,  1,  5,  5  ]
     [  1     0     0  ]
       2.6921   2.6921   2.6921   2.6921   2.6921
       2.6921   2.6921   2.6921   2.6921   2.6921
       2.6921   2.6921   2.6921   2.6921   2.6921
       2.6921   2.6921   2.6921   2.6921   2.6921
       2.6921   2.6921   2.6921   2.6921   2.6921
 
 
     =========================
     E(+U+V) =  0.372592451 Ry
     =========================

     total cpu time spent up to now is      103.6 secs

     total energy              =    -335.06573800 Ry
     estimated scf accuracy    <       0.02030028 Ry
     Hubbard accuracy          <       0.07077381 Ry

     total magnetization       =     0.00 Bohr mag/cell
     absolute magnetization    =     0.00 Bohr mag/cell

     iteration #  6     ecut=   100.00 Ry     beta= 0.70
     Davidson diagonalization with overlap

---- Real-time Memory Report at c_bands before calling an iterative solver
           809 MiB given to the printing process from OS
             0 MiB allocation reported by mallinfo(arena+hblkhd)
        441381 MiB available memory on the node where the printing process lives
------------------
     ethr =  3.28E-05,  avg # of iterations =  2.0
                                        
     -----------------------------------
     V[atom i, atom j, #orb(i), #orb(j)]
     -----------------------------------
     [  1,  1,  5,  5  ]
     [  0     0     0  ]
      16.8841  16.8841  16.8841  16.8841  16.8841
      16.8841  16.8841  16.8841  16.8841  16.8841
      16.8841  16.8841  16.8841  16.8841  16.8841
      16.8841  16.8841  16.8841  16.8841  16.8841
      16.8841  16.8841  16.8841  16.8841  16.8841
 
     [  1,  1,  5,  5  ]
     [ -1     0     0  ]
       2.6649   2.6649   2.6649   2.6649   2.6649
       2.6649   2.6649   2.6649   2.6649   2.6649
       2.6649   2.6649   2.6649   2.6649   2.6649
       2.6649   2.6649   2.6649   2.6649   2.6649
       2.6649   2.6649   2.6649   2.6649   2.6649
 
     [  1,  1,  5,  5  ]
     [ -1     0     1  ]
       2.6649   2.6649   2.6649   2.6649   2.6649
       2.6649   2.6649   2.6649   2.6649   2.6649
       2.6649   2.6649   2.6649   2.6649   2.6649
       2.6649   2.6649   2.6649   2.6649   2.6649
       2.6649   2.6649   2.6649   2.6649   2.6649
 
     [  1,  1,  5,  5  ]
     [ -1     1     0  ]
       2.6649   2.6649   2.6649   2.6649   2.6649
       2.6649   2.6649   2.6649   2.6649   2.6649
       2.6649   2.6649   2.6649   2.6649   2.6649
       2.6649   2.6649   2.6649   2.6649   2.6649
       2.6649   2.6649   2.6649   2.6649   2.6649
 
     [  1,  1,  5,  5  ]
     [  0    -1     0  ]
       2.6649   2.6649   2.6649   2.6649   2.6649
       2.6649   2.6649   2.6649   2.6649   2.6649
       2.6649   2.6649   2.6649   2.6649   2.6649
       2.6649   2.6649   2.6649   2.6649   2.6649
       2.6649   2.6649   2.6649   2.6649   2.6649
 
     [  1,  1,  5,  5  ]
     [  0    -1     1  ]
       2.6649   2.6649   2.6649   2.6649   2.6649
       2.6649   2.6649   2.6649   2.6649   2.6649
       2.6649   2.6649   2.6649   2.6649   2.6649
       2.6649   2.6649   2.6649   2.6649   2.6649
       2.6649   2.6649   2.6649   2.6649   2.6649
 
     [  1,  1,  5,  5  ]
     [  0     0    -1  ]
       2.6649   2.6649   2.6649   2.6649   2.6649
       2.6649   2.6649   2.6649   2.6649   2.6649
       2.6649   2.6649   2.6649   2.6649   2.6649
       2.6649   2.6649   2.6649   2.6649   2.6649
       2.6649   2.6649   2.6649   2.6649   2.6649
 
     [  1,  1,  5,  5  ]
     [  0     0     1  ]
       2.6649   2.6649   2.6649   2.6649   2.6649
       2.6649   2.6649   2.6649   2.6649   2.6649
       2.6649   2.6649   2.6649   2.6649   2.6649
       2.6649   2.6649   2.6649   2.6649   2.6649
       2.6649   2.6649   2.6649   2.6649   2.6649
 
     [  1,  1,  5,  5  ]
     [  0     1    -1  ]
       2.6649   2.6649   2.6649   2.6649   2.6649
       2.6649   2.6649   2.6649   2.6649   2.6649
       2.6649   2.6649   2.6649   2.6649   2.6649
       2.6649   2.6649   2.6649   2.6649   2.6649
       2.6649   2.6649   2.6649   2.6649   2.6649
 
     [  1,  1,  5,  5  ]
     [  0     1     0  ]
       2.6649   2.6649   2.6649   2.6649   2.6649
       2.6649   2.6649   2.6649   2.6649   2.6649
       2.6649   2.6649   2.6649   2.6649   2.6649
       2.6649   2.6649   2.6649   2.6649   2.6649
       2.6649   2.6649   2.6649   2.6649   2.6649
 
     [  1,  1,  5,  5  ]
     [  1    -1     0  ]
       2.6649   2.6649   2.6649   2.6649   2.6649
       2.6649   2.6649   2.6649   2.6649   2.6649
       2.6649   2.6649   2.6649   2.6649   2.6649
       2.6649   2.6649   2.6649   2.6649   2.6649
       2.6649   2.6649   2.6649   2.6649   2.6649
 
     [  1,  1,  5,  5  ]
     [  1     0    -1  ]
       2.6649   2.6649   2.6649   2.6649   2.6649
       2.6649   2.6649   2.6649   2.6649   2.6649
       2.6649   2.6649   2.6649   2.6649   2.6649
       2.6649   2.6649   2.6649   2.6649   2.6649
       2.6649   2.6649   2.6649   2.6649   2.6649
 
     [  1,  1,  5,  5  ]
     [  1     0     0  ]
       2.6649   2.6649   2.6649   2.6649   2.6649
       2.6649   2.6649   2.6649   2.6649   2.6649
       2.6649   2.6649   2.6649   2.6649   2.6649
       2.6649   2.6649   2.6649   2.6649   2.6649
[...]

     occupation numbers 
     1.0000   1.0000   1.0000   1.0000   1.0000   1.0000   1.0000   1.0000
     1.0816   0.0000   0.0000   0.0000   0.0000

          k = 0.6000-0.2000 0.7333 (  1146 PWs)   bands (ev):

   -79.8069 -40.4640 -40.3312 -40.2554  11.2669  12.0045  13.4431  13.6471
    15.8608  24.7748  27.7366  36.0589  39.5495

     occupation numbers 
     1.0000   1.0000   1.0000   1.0000   1.0000   1.0000   1.0000   1.0000
     1.0821   0.0000   0.0000   0.0000   0.0000

          k = 0.5333-0.1333 0.6667 (  1151 PWs)   bands (ev):

   -79.8080 -40.4542 -40.3386 -40.2468  11.4865  12.1904  13.2986  13.4969
    15.6091  23.7795  28.9925  35.3806  40.5442

     occupation numbers 
     1.0000   1.0000   1.0000   1.0000   1.0000   1.0000   1.0000   1.0000
     1.0138   0.0000   0.0000   0.0000   0.0000

          k = 0.4667-0.0667 0.6000 (  1149 PWs)   bands (ev):

   -79.8125 -40.4331 -40.3315 -40.2349  11.8177  12.3641  13.0058  13.6046
    15.2193  21.6581  31.7038  35.0432  41.7993

     occupation numbers 
     1.0000   1.0000   1.0000   1.0000   1.0000   1.0000   1.0000   1.0000
     1.0000   0.0000   0.0000   0.0000   0.0000

          k = 0.4000 0.0000 0.5333 (  1145 PWs)   bands (ev):

   -79.8187 -40.4096 -40.3064 -40.2221  12.1868  12.4306  12.8466  13.7185
    14.8055  19.6316  34.4152  35.3479  43.2441

     occupation numbers 
     1.0000   1.0000   1.0000   1.0000   1.0000   1.0000   1.0000   1.0000
     1.0000   0.0000   0.0000   0.0000   0.0000

          k =-0.1333 0.6667-0.0000 (  1146 PWs)   bands (ev):

   -79.8152 -40.4161 -40.2770 -40.2650  10.8236  11.3174  14.3118  15.1915
    15.5358  18.9376  37.0832  37.2177  38.1937

     occupation numbers 
     1.0000   1.0000   1.0000   1.0000   1.0000   1.0000   1.0000   1.0000
     1.0055   0.0000   0.0000   0.0000   0.0000

          k =-0.2000 0.7333-0.0667 (  1151 PWs)   bands (ev):

   -79.8099 -40.4392 -40.2996 -40.2732  10.6723  11.3204  14.1519  14.9781
    15.9066  20.8982  34.3245  36.0826  37.3153

     occupation numbers 
     1.0000   1.0000   1.0000   1.0000   1.0000   1.0000   1.0000   1.0000
     1.0809   0.0000   0.0000   0.0000   0.0000

          k = 0.7333-0.2000 0.8667 (  1147 PWs)   bands (ev):

   -79.8041 -40.4508 -40.3288 -40.2758  10.6501  11.4716  13.9644  14.5500
    16.1163  23.1784  31.4810  34.7930  37.4336

     occupation numbers 
     1.0000   1.0000   1.0000   1.0000   1.0000   1.0000   1.0000   1.0000
     0.8003   0.0000   0.0000   0.0000   0.0000

          k = 0.6667-0.1333 0.8000 (  1148 PWs)   bands (ev):

   -79.7998 -40.4476 -40.3601 -40.2718  10.7508  11.7499  13.7589  14.0456
    16.0928  25.6115  28.8980  33.7406  38.0631

     occupation numbers 
     1.0000   1.0000   1.0000   1.0000   1.0000   1.0000   1.0000   1.0000
     0.8562   0.0000   0.0000   0.0000   0.0000

          k = 0.6000-0.0667 0.7333 (  1145 PWs)   bands (ev):

   -79.7995 -40.4316 -40.3838 -40.2623  10.9888  12.1341  13.3734  13.7397
    15.8681  25.9974  28.6433  33.0482  39.0725

     occupation numbers 
     1.0000   1.0000   1.0000   1.0000   1.0000   1.0000   1.0000   1.0000
     1.0828   0.0000   0.0000   0.0000   0.0000

          k = 0.5333-0.0000 0.6667 (  1147 PWs)   bands (ev):

   -79.8043 -40.4265 -40.3736 -40.2491  11.3652  12.5359  12.9089  13.6325
    15.5337  23.8142  30.8278  33.0866  40.3496

     occupation numbers 
     1.0000   1.0000   1.0000   1.0000   1.0000   1.0000   1.0000   1.0000
     1.0053   0.0000   0.0000   0.0000   0.0000

          k =-0.1333 0.8000 0.0000 (  1157 PWs)   bands (ev):

   -79.8075 -40.4569 -40.2957 -40.2863  10.2492  10.9791  14.5387  15.6887
    16.1778  21.3831  34.1483  35.9520  36.3659

     occupation numbers 
     1.0000   1.0000   1.0000   1.0000   1.0000   1.0000   1.0000   1.0314
     0.6374   0.0000   0.0000   0.0000   0.0000

          k = 0.8000-0.1333 0.9333 (  1151 PWs)   bands (ev):

   -79.8022 -40.4636 -40.3192 -40.2901  10.2200  11.0713  14.4030  15.2757
    16.3709  23.3835  32.7565  33.5898  36.2563

     occupation numbers 
     1.0000   1.0000   1.0000   1.0000   1.0000   1.0000   1.0000   1.0001
     0.1814   0.0000   0.0000   0.0000   0.0000

          k = 0.7333-0.0667 0.8667 (  1149 PWs)   bands (ev):

   -79.7974 -40.4554 -40.3528 -40.2862  10.3359  11.3284  14.2105  14.6290
    16.3566  25.5894  30.7258  32.1147  36.8101

     occupation numbers 
     1.0000   1.0000   1.0000   1.0000   1.0000   1.0000   1.0000   1.0000
     0.2052   0.0000   0.0000   0.0000   0.0000

          k = 0.6667 0.0000 0.8000 (  1148 PWs)   bands (ev):

   -79.7957 -40.4331 -40.3875 -40.2763  10.5916  11.7163  13.9368  13.9881
    16.1559  27.5533  28.3261  31.8923  37.7898

     occupation numbers 
     1.0000   1.0000   1.0000   1.0000   1.0000   1.0000   1.0000   1.0000
     0.6972   0.0000   0.0000   0.0000   0.0000

          k = 0.8667-0.0667 1.0000 (  1143 PWs)   bands (ev):

   -79.8025 -40.4790 -40.3057 -40.2979   9.9502  10.7977  14.6542  15.9719
    16.5589  23.4798  31.5595  35.2441  35.6252

     occupation numbers 
     1.0000   1.0000   1.0000   1.0000   1.0000   1.0000   1.0000   1.0480
     0.0223   0.0000   0.0000   0.0000   0.0000

          k = 0.8000 0.0000 0.9333 (  1148 PWs)   bands (ev):

   -79.7991 -40.4720 -40.3265 -40.2959  10.0649  10.9847  14.4938  15.3634
    16.5487  24.7985  31.1771  33.1895  35.9115

     occupation numbers 
     1.0000   1.0000   1.0000   1.0000   1.0000   1.0000   1.0000   1.0003
     0.0256   0.0000   0.0000   0.0000   0.0000

          k =-0.2667 0.5333 0.0000 (  1143 PWs)   bands (ev):

   -79.8222 -40.3864 -40.2747 -40.2267  11.9099  12.0469  13.2546  14.2581
    14.7693  18.0314  36.5357  37.0521  42.3438

     occupation numbers 
     1.0000   1.0000   1.0000   1.0000   1.0000   1.0000   1.0000   1.0000
     1.0000   0.0000   0.0000   0.0000   0.0000

          k =-0.3333 0.6000-0.0667 (  1148 PWs)   bands (ev):

   -79.8167 -40.4194 -40.2993 -40.2378  11.6974  12.0759  13.1470  14.1013
    15.2187  19.9171  33.5810  36.6211  40.7801

     occupation numbers 
     1.0000   1.0000   1.0000   1.0000   1.0000   1.0000   1.0000   1.0000
     1.0000   0.0000   0.0000   0.0000   0.0000

          k = 0.6000-0.3333 0.8667 (  1144 PWs)   bands (ev):

   -79.8117 -40.4477 -40.3154 -40.2484  11.5407  12.0477  13.1836  13.8512
    15.6117  22.0329  30.6512  36.7209  39.4363

     occupation numbers 
     1.0000   1.0000   1.0000   1.0000   1.0000   1.0000   1.0000   1.0000
     1.0143   0.0000   0.0000   0.0000   0.0000

          k = 0.5333-0.2667 0.8000 (  1148 PWs)   bands (ev):

   -79.8085 -40.4644 -40.3230 -40.2549  11.4469  12.0197  13.3276  13.5807
    15.8292  24.1325  28.1784  37.0713  38.4589

     occupation numbers 
     1.0000   1.0000   1.0000   1.0000   1.0000   1.0000   1.0000   1.0000
     1.0762   0.0000   0.0000   0.0000   0.0000

          k =-0.2667 0.6667 0.0000 (  1154 PWs)   bands (ev):

   -79.8130 -40.4232 -40.3013 -40.2574  11.1497  11.6750  13.6197  14.6206
    15.5097  20.2936  35.0208  35.6490  38.4374

     occupation numbers 
     1.0000   1.0000   1.0000   1.0000   1.0000   1.0000   1.0000   1.0000
     1.0038   0.0000   0.0000   0.0000   0.0000

          k = 0.6667-0.2667 0.9333 (  1150 PWs)   bands (ev):

   -79.8066 -40.4389 -40.3272 -40.2681  11.0191  11.8005  13.4448  14.3253
    15.8618  22.4129  32.2865  35.3954  37.0021

     occupation numbers 
     1.0000   1.0000   1.0000   1.0000   1.0000   1.0000   1.0000   1.0000
     1.0822   0.0000   0.0000   0.0000   0.0000

          k = 0.6000-0.2000 0.8667 (  1151 PWs)   bands (ev):

   -79.8013 -40.4457 -40.3491 -40.2738  10.9721  12.0123  13.2890  13.9443
    16.0704  24.7257  29.5648  35.3258  36.2641

     occupation numbers 
     1.0000   1.0000   1.0000   1.0000   1.0000   1.0000   1.0000   1.0000
     0.9046   0.0000   0.0000   0.0000   0.0000

          k = 0.5333-0.1333 0.8000 (  1151 PWs)   bands (ev):

   -79.7996 -40.4431 -40.3625 -40.2719  11.0294  12.2594  13.0746  13.7288
    16.0573  26.1278  28.1298  34.6024  36.8398

     occupation numbers 
     1.0000   1.0000   1.0000   1.0000   1.0000   1.0000   1.0000   1.0000
     0.9305   0.0000   0.0000   0.0000   0.0000

          k = 0.4667-0.0667 0.7333 (  1152 PWs)   bands (ev):

   -79.8027 -40.4357 -40.3595 -40.2632  11.2077  12.3790  12.8879  13.8023
    15.8355  24.1390  30.3834  34.0529  37.8947

     occupation numbers 
     1.0000   1.0000   1.0000   1.0000   1.0000   1.0000   1.0000   1.0000
     1.0777   0.0000   0.0000   0.0000   0.0000

          k = 0.4000 0.0000 0.6667 (  1148 PWs)   bands (ev):

   -79.8092 -40.4286 -40.3358 -40.2505  11.4603  12.2323  12.9485  14.0157
    15.4915  21.9410  32.8525  34.1877  39.2260

     occupation numbers 
     1.0000   1.0000   1.0000   1.0000   1.0000   1.0000   1.0000   1.0000
     1.0029   0.0000   0.0000   0.0000   0.0000

          k = 0.7333-0.2000 1.0000 (  1152 PWs)   bands (ev):

   -79.8037 -40.4484 -40.3216 -40.2853  10.5526  11.3839  14.0016  14.7876
    16.1645  22.8300  33.8487  34.2358  35.2225

     occupation numbers 
     1.0000   1.0000   1.0000   1.0000   1.0000   1.0000   1.0000   1.0000
     0.6738   0.0000   0.0000   0.0000   0.0000

          k = 0.6667-0.1333 0.9333 (  1149 PWs)   bands (ev):

   -79.7976 -40.4459 -40.3493 -40.2920  10.5474  11.6131  13.7983  14.3073
    16.3589  25.0456  31.3775  33.3663  34.9124

     occupation numbers 
     1.0000   1.0000   1.0000   1.0000   1.0000   1.0000   1.0000   1.0000
     0.2012   0.0000   0.0000   0.0000   0.0000

          k = 0.6000-0.0667 0.8667 (  1154 PWs)   bands (ev):

   -79.7943 -40.4298 -40.3814 -40.2889  10.6538  11.9735  13.4297  13.9288
    16.3454  27.3417  28.8808  32.5671  35.5616

     occupation numbers 
     1.0000   1.0000   1.0000   1.0000   1.0000   1.0000   1.0000   1.0000
     0.2252   0.0000   0.0000   0.0000   0.0000

          k = 0.5333 0.0000 0.8000 (  1153 PWs)   bands (ev):

   -79.7961 -40.4142 -40.3978 -40.2781  10.8822  12.4025  12.9204  13.8011
    16.1360  26.3738  29.5299  32.4670  36.5936

     occupation numbers 
     1.0000   1.0000   1.0000   1.0000   1.0000   1.0000   1.0000   1.0000
     0.7501   0.0000   0.0000   0.0000   0.0000

          k = 0.7333-0.0667 1.0000 (  1153 PWs)   bands (ev):

   -79.7974 -40.4608 -40.3325 -40.3021  10.2341  11.2254  14.2860  14.7758
    16.5576  25.1179  31.7833  33.1948  34.3350

     occupation numbers 
     1.0000   1.0000   1.0000   1.0000   1.0000   1.0000   1.0000   1.0000
     0.0227   0.0000   0.0000   0.0000   0.0000

          k = 0.6667 0.0000 0.9333 (  1154 PWs)   bands (ev):

   -79.7939 -40.4464 -40.3586 -40.3009  10.3818  11.5462  14.0862  14.1209
    16.5493  26.6866  30.8702  31.7341  34.5990

     occupation numbers 
     1.0000   1.0000   1.0000   1.0000   1.0000   1.0000   1.0000   1.0000
     0.0253   0.0000   0.0000   0.0000   0.0000

          k = 0.6000-0.2000 1.0000 (  1139 PWs)   bands (ev):

   -79.7992 -40.4344 -40.3582 -40.2823  10.8595  12.0423  13.2039  14.0759
    16.1472  24.5447  31.6539  33.3473  35.5542

     occupation numbers 
     1.0000   1.0000   1.0000   1.0000   1.0000   1.0000   1.0000   1.0000
     0.7205   0.0000   0.0000   0.0000   0.0000

          k = 0.5333-0.1333 0.9333 (  1152 PWs)   bands (ev):

   -79.7943 -40.4243 -40.3817 -40.2919  10.7635  12.3852  12.8808  13.8605
    16.3494  26.8247  29.4644  33.3290  34.5019

     occupation numbers 
     1.0000   1.0000   1.0000   1.0000   1.0000   1.0000   1.0000   1.0000
     0.2178   0.0000   0.0000   0.0000   0.0000

          k = 0.6000-0.0667 1.0000 (  1149 PWs)   bands (ev):

   -79.7924 -40.4320 -40.3701 -40.3055  10.5339  11.9310  13.4356  13.9921
    16.5555  27.0508  30.9845  32.1113  33.3456

     occupation numbers 
     1.0000   1.0000   1.0000   1.0000   1.0000   1.0000   1.0000   1.0000
     0.0233   0.0000   0.0000   0.0000   0.0000

          k = 0.5333-0.0000 0.9333 (  1146 PWs)   bands (ev):

   -79.7910 -40.4106 -40.3960 -40.3052  10.6081  12.3755  12.8987  13.8643
    16.5524  28.7917  29.0304  31.9898  33.5001

     occupation numbers 
     1.0000   1.0000   1.0000   1.0000   1.0000   1.0000   1.0000   1.0000
     0.0243   0.0000   0.0000   0.0000   0.0000

     the Fermi energy is    16.2656 ev

!    total energy              =    -335.07483930 Ry
     estimated scf accuracy    <          1.3E-15 Ry
     Hubbard accuracy          <       0.00000001 Ry
     smearing contrib. (-TS)   =       0.00034757 Ry
     internal energy E=F+TS    =    -335.07518687 Ry

     The total energy is F=E-TS. E is the sum of the following terms:
     one-electron contribution =    -156.02026088 Ry
     hartree contribution      =      93.13153233 Ry
     xc contribution           =     -43.31991994 Ry
     ewald contribution        =    -229.24310371 Ry
     Extended Hubbard energy   =       0.37656532 Ry

     total magnetization       =     0.00 Bohr mag/cell
     absolute magnetization    =     0.00 Bohr mag/cell

     convergence has been achieved in  22 iterations

     Forces acting on atoms (cartesian axes, Ry/au):

     atom    1 type  1   force =     0.00000000    0.00000000    0.00000000
     The non-local contrib.  to forces
     atom    1 type  1   force =    -0.00000000   -0.00000000   -0.00000000
     The ionic contribution  to forces
     atom    1 type  1   force =     0.00000000    0.00000000    0.00000000
     The local contribution  to forces
     atom    1 type  1   force =     0.00000000   -0.00000000   -0.00000000
     The core correction contribution to forces
     atom    1 type  1   force =    -0.00000000    0.00000000   -0.00000000
     The Hubbard contrib.    to forces
     atom    1 type  1   force =    -0.00000000    0.00000000   -0.00000000
     The SCF correction term to forces
     atom    1 type  1   force =     0.00000000   -0.00000000   -0.00000000

     Total force =     0.000000     Total SCF correction =     0.000000


     Computing stress (Cartesian axis) and pressure

          total   stress  (Ry/bohr**3)                   (kbar)     P=      223.79
   0.00152129   0.00000000  -0.00000000          223.79        0.00       -0.00
   0.00000000   0.00152129  -0.00000000            0.00      223.79       -0.00
  -0.00000000   0.00000000   0.00152129           -0.00        0.00      223.79

     kinetic stress (kbar) 231994.09      0.00     -0.00
                                0.00 231994.09      0.00
                                0.00      0.00 231994.09

     local   stress (kbar) -13854.86      0.00      0.00
                                0.00 -13854.86     -0.00
                                0.00     -0.00 -13854.86

     nonloc. stress (kbar) -91324.54      0.00      0.00
                                0.00 -91324.54     -0.00
                                0.00     -0.00 -91324.54

     hartree stress (kbar)  67133.32     -0.00     -0.00
                               -0.00  67133.32     -0.00
                               -0.00     -0.00  67133.32

     exc-cor stress (kbar)  -4774.04      0.00     -0.00
                                0.00  -4774.04      0.00
                               -0.00      0.00  -4774.04

     corecor stress (kbar) -23046.63      0.00      0.00
                                0.00 -23046.63      0.00
                                0.00      0.00 -23046.63

     ewald   stress (kbar)-165248.55     -0.00     -0.00
                               -0.00-165248.55     -0.00
                               -0.00     -0.00-165248.55

     hubbard stress (kbar)   -654.99      0.00      0.00
                                0.00   -654.99     -0.00
                                0.00     -0.00   -654.99

     DFT-D   stress (kbar)      0.00      0.00      0.00
                                0.00      0.00      0.00
                                0.00      0.00      0.00

     XDM     stress (kbar)      0.00      0.00      0.00
                                0.00      0.00      0.00
                                0.00      0.00      0.00

     dft-nl  stress (kbar)      0.00      0.00      0.00
                                0.00      0.00      0.00
                                0.00      0.00      0.00

     TS-vdW  stress (kbar)      0.00      0.00      0.00
                                0.00      0.00      0.00
                                0.00      0.00      0.00

     MDB     stress (kbar)      0.00      0.00      0.00
                                0.00      0.00      0.00
                                0.00      0.00      0.00

     3D-RISM stress (kbar)      0.00      0.00      0.00
                                0.00      0.00      0.00
                                0.00      0.00      0.00


     Writing all to output data dir ./temp/Ni.save/ :
     XML data file, charge density, pseudopotentials, collected wavefunctions
 
     init_run     :      0.11s CPU      0.67s WALL (       1 calls)
     electrons    :    379.30s CPU    381.80s WALL (       1 calls)
     forces       :      0.02s CPU      0.02s WALL (       1 calls)
     stress       :      0.04s CPU      0.05s WALL (       1 calls)

     Called by init_run:
     wfcinit      :      0.02s CPU      0.14s WALL (       1 calls)
     wfcinit:wfcr :      0.02s CPU      0.03s WALL (      15 calls)
     potinit      :      0.06s CPU      0.07s WALL (       1 calls)
     hinit0       :      0.01s CPU      0.44s WALL (       1 calls)

     Called by electrons:
     c_bands      :      1.70s CPU      1.84s WALL (      23 calls)
     sum_band     :    377.39s CPU    379.10s WALL (      23 calls)
     v_of_rho     :      0.07s CPU      0.08s WALL (      23 calls)
     v_h          :      0.00s CPU      0.00s WALL (      23 calls)
     v_xc         :      0.07s CPU      0.08s WALL (      25 calls)
     mix_rho      :      0.02s CPU      0.03s WALL (      23 calls)

     Called by c_bands:
     init_us_2    :      0.02s CPU      0.02s WALL (     780 calls)
     init_us_2:cp :      0.02s CPU      0.02s WALL (     780 calls)
     cegterg      :      1.27s CPU      1.35s WALL (     345 calls)

     Called by sum_band:
     sum_band:wei :      0.02s CPU      0.02s WALL (      23 calls)
     sum_band:loo :      0.19s CPU      0.20s WALL (      23 calls)
     sum_band:buf :      0.00s CPU      0.00s WALL (     345 calls)
     sum_band:ini :      0.01s CPU      0.01s WALL (     345 calls)

     Called by *egterg:
     cdiaghg      :      0.16s CPU      0.22s WALL (    1129 calls)
     cegterg:over :      0.04s CPU      0.04s WALL (     799 calls)
     cegterg:upda :      0.01s CPU      0.01s WALL (     799 calls)
     cegterg:last :      0.02s CPU      0.02s WALL (     715 calls)
     h_psi        :      1.01s CPU      1.05s WALL (    1159 calls)
     g_psi        :      0.00s CPU      0.00s WALL (     799 calls)

     Called by h_psi:
     h_psi:calbec :      0.03s CPU      0.03s WALL (    1159 calls)
     vloc_psi     :      0.89s CPU      0.93s WALL (    1159 calls)
     add_vuspsi   :      0.01s CPU      0.01s WALL (    1159 calls)

     General routines
     calbec       :      0.05s CPU      0.06s WALL (    2978 calls)
     fft          :      0.03s CPU      0.46s WALL (     481 calls)
     ffts         :      0.01s CPU      0.01s WALL (      46 calls)
     fftw         :      0.98s CPU      1.01s WALL (   28675 calls)
 
     Parallel routines

     Extended Hubbard routines
     new_ns_e0_#1 :    373.23s CPU    374.92s WALL (      23 calls)
     vhpsi_v      :      0.07s CPU      0.07s WALL (    1159 calls)
     force_hub_v  :      0.01s CPU      0.01s WALL (       1 calls)
     stres_hub_v  :      0.03s CPU      0.03s WALL (       1 calls)
 
     PWSCF        :   6m22.33s CPU   6m26.39s WALL

 
   This run was terminated on:   8:16:54   5Jan2024            

=------------------------------------------------------------------------------=
   JOB DONE.
=------------------------------------------------------------------------------=
