<preamble>

<basis_specs>
===============================================================================
Al                   Z=  13    Mass=  26.980        Charge= 0.17977+309
Lmxo=2 Lmxkb= 2    BasisType=split      Semic=F
L=0  Nsemic=0  Cnfigmx=3
          i=1  nzeta=2  polorb=0  (3s)
            splnorm:   0.15000    
               vcte:    40.000    
               rinn:    5.8764    
               qcoe:    0.0000    
               qyuk:    0.0000    
               qwid:   0.10000E-01
                rcs:    6.5228      4.5890    
            lambdas:    1.0000      1.0000    
L=1  Nsemic=0  Cnfigmx=3
          i=1  nzeta=2  polorb=1  (3p)  (to be polarized perturbatively)
            splnorm:   0.15000    
               vcte:    40.000    
               rinn:    7.7470    
               qcoe:    0.0000    
               qyuk:    0.0000    
               qwid:   0.10000E-01
                rcs:    8.5992      6.1793    
            lambdas:    1.0000      1.0000    
L=2  Nsemic=0  Cnfigmx=3
          i=1  nzeta=0  polorb=0  (3d)  (perturbative polarization orbital) (from 3p)
-------------------------------------------------------------------------------
L=0  Nkbl=1  erefs: 0.17977+309
L=1  Nkbl=1  erefs: 0.17977+309
L=2  Nkbl=1  erefs: 0.17977+309
===============================================================================
</basis_specs>

<pseudopotential_header>
 Al pb nrl pcec
 ONCVPSP-3.2017-10-31Hamann's oncvpsp                        
 3s 2.00  r= 1.77/3p 1.00  r= 1.77/3d 0.00  r= 1.71/                    3s:3p:
</pseudopotential_header>
</preamble>
Al                            # Symbol
Al                            # Label
   13                         # Atomic number
     3.00000000000                             # Valence charge
     26.9800000000        # Mass 
     10.6007371437        # Self energy 
   2   5                      # Lmax for basis, no. of nl orbitals 
   2   6                      # Lmax for projectors, no. of nl KB projectors
# PAOs:__________________________
  0  3  1  0  2.000000   #orbital l, n, z, is_polarized, population
 500    0.1307166719389452E-01     6.522761929753366     # npts, delta, cutoff
     0.000000000000000        0.1322138697313166    
    0.1307166719389452E-01    0.1322529976006735    
    0.2614333438778904E-01    0.1323723809599356    
    0.3921500158168356E-01    0.1325714168504910    
    0.5228666877557808E-01    0.1328501975894049    
    0.6535833596947260E-01    0.1332088476416677    
    0.7843000316336712E-01    0.1336475187144523    
    0.9150167035726164E-01    0.1341663836996221    
    0.1045733375511562        0.1347656295123146    
    0.1176450047450507        0.1354454489498034    
    0.1307166719389452        0.1362060317180930    
    0.1437883391328397        0.1370475547894763    
    0.1568600063267342        0.1379701722661094    
    0.1699316735206288        0.1389740049329286    
    0.1830033407145233        0.1400591296879111    
    0.1960750079084178        0.1412255690387288    
    0.2091466751023123        0.1424732808522643    
    0.2222183422962068        0.1438021485373147    
    0.2352900094901014        0.1452119718312518    
    0.2483616766839959        0.1467024583486326    
    0.2614333438778904        0.1482732160340245    
    0.2745050110717849        0.1499237466429783    
    0.2875766782656795        0.1516534403544855    
    0.3006483454595740        0.1534615715958578    
    0.3137200126534685        0.1553472961371812    
    0.3267916798473630        0.1573096494878524    
    0.3398633470412575        0.1593475466026448    
    0.3529350142351521        0.1614597828798252    
    0.3660066814290466        0.1636450364095287    
    0.3790783486229411        0.1659018714073617    
    0.3921500158168356        0.1682287427465491    
    0.4052216830107301        0.1706240014822542    
    0.4182933502046247        0.1730859012443662    
    0.4313650173985192        0.1756126053604364    
    0.4444366845924137        0.1782021945587977    
    0.4575083517863082        0.1808526750934126    
    0.4705800189802027        0.1835619871269152    
    0.4836516861740973        0.1863280132065694    
    0.4967233533679918        0.1891485866696094    
    0.5097950205618863        0.1920214998195214    
    0.5228666877557808        0.1949445117231380    
    0.5359383549496753        0.1979153554898405    
    0.5490100221435699        0.2009317449082621    
    0.5620816893374644        0.2039913803326086    
    0.5751533565313589        0.2070919537294034    
    0.5882250237252534        0.2102311528159913    
    0.6012966909191479        0.2134066642438636    
    0.6143683581130425        0.2166161758024329    
    0.6274400253069370        0.2198573776417820    
    0.6405116925008315        0.2231279625357465    
    0.6535833596947260        0.2264256252287293    
    0.6666550268886205        0.2297480609308199    
    0.6797266940825151        0.2330929630453323    
    0.6927983612764096        0.2364580202304806    
    0.7058700284703041        0.2398409129123366    
    0.7189416956641986        0.2432393093789756    
    0.7320133628580932        0.2466508615956318    
    0.7450850300519877        0.2500732008875848    
    0.7581566972458822        0.2535039336412048    
    0.7712283644397767        0.2569406371739979    
    0.7843000316336712        0.2603808559217158    
    0.7973716988275658        0.2638220980846074    
    0.8104433660214603        0.2672618328658107    
    0.8235150332153548        0.2706974884230179    
    0.8365867004092493        0.2741264506400087    
    0.8496583676031438        0.2775460628078661    
    0.8627300347970384        0.2809536262869076    
    0.8758017019909329        0.2843464022000929    
    0.8888733691848274        0.2877216141872174    
    0.9019450363787219        0.2910764522270919    
    0.9150167035726164        0.2944080775125827    
    0.9280883707665110        0.2977136283412715    
    0.9411600379604055        0.3009902269631164    
    0.9542317051543000        0.3042349873061900    
    0.9673033723481945        0.3074450234829124    
    0.9803750395420890        0.3106174589623569    
    0.9934467067359836        0.3137494362797566    
     1.006518373929878        0.3168381271423720    
     1.019590041123773        0.3198807427818015    
     1.032661708317667        0.3228745443966664    
     1.045733375511562        0.3258168535266501    
     1.058805042705456        0.3287050621989786    
     1.071876709899351        0.3315366426919105    
     1.084948377093245        0.3343091567660530    
     1.098020044287140        0.3370202642239497    
     1.111091711481034        0.3396677306703829    
     1.124163378674929        0.3422494343606212    
     1.137235045868823        0.3447633720407254    
     1.150306713062718        0.3472076637027051    
     1.163378380256612        0.3495805561978052    
     1.176450047450507        0.3518804256722083    
     1.189521714644401        0.3541057788117212    
     1.202593381838296        0.3562552529039129    
     1.215665049032190        0.3583276147483634    
     1.228736716226085        0.3603217584666691    
     1.241808383419980        0.3622367022841494    
     1.254880050613874        0.3640715843737587    
     1.267951717807768        0.3658256578694464    
     1.281023385001663        0.3674982851707590    
     1.294095052195558        0.3690889316725232    
     1.307166719389452        0.3705971590628633    
     1.320238386583346        0.3720226183390974    
     1.333310053777241        0.3733650426946300    
     1.346381720971136        0.3746242404303494    
     1.359453388165030        0.3758000880412712    
     1.372525055358925        0.3768925236235434    
     1.385596722552819        0.3779015407384936    
     1.398668389746714        0.3788271828591419    
     1.411740056940608        0.3796695385109884    
     1.424811724134503        0.3804287372031680    
     1.437883391328397        0.3811049462284806    
     1.450955058522292        0.3816983683916820    
     1.464026725716186        0.3822092407055069    
     1.477098392910081        0.3826378340729477    
     1.490170060103975        0.3829844539533749    
     1.503241727297870        0.3832494419891774    
     1.516313394491764        0.3834331785496986    
     1.529385061685659        0.3835360861295061    
     1.542456728879553        0.3835586335204167    
     1.555528396073448        0.3835013406606997    
     1.568600063267342        0.3833647840504720    
     1.581671730461237        0.3831496026105250    
     1.594743397655132        0.3828565038526013    
     1.607815064849026        0.3824862702224930    
     1.620886732042921        0.3820397654732243    
     1.633958399236815        0.3815179409249896    
     1.647030066430710        0.3809218414699173    
     1.660101733624604        0.3802526111845035    
     1.673173400818499        0.3795114984203028    
     1.686245068012393        0.3786998602523227    
     1.699316735206288        0.3778191661751570    
     1.712388402400182        0.3768710009825287    
     1.725460069594077        0.3758570669125241    
     1.738531736787971        0.3747791834047539    
     1.751603403981866        0.3736392870896666    
     1.764675071175760        0.3724394394911636    
     1.777746738369655        0.3711818077528221    
     1.790818405563549        0.3698686059138174    
     1.803890072757444        0.3685020304892395    
     1.816961739951338        0.3670842186784490    
     1.830033407145233        0.3656172505429273    
     1.843105074339127        0.3641031561674103    
     1.856176741533022        0.3625439144417760    
     1.869248408726917        0.3609414529219051    
     1.882320075920811        0.3592976485202509    
     1.895391743114705        0.3576143284586412    
     1.908463410308600        0.3558932709191789    
     1.921535077502495        0.3541362057938488    
     1.934606744696389        0.3523448155273288    
     1.947678411890283        0.3505207359690375    
     1.960750079084178        0.3486655572538955    
     1.973821746278073        0.3467808247081468    
     1.986893413471967        0.3448680397709364    
     1.999965080665862        0.3429286609272265    
     2.013036747859756        0.3409641046471427    
     2.026108415053651        0.3389757463274141    
     2.039180082247545        0.3369649212312626    
     2.052251749441440        0.3349329254233015    
     2.065323416635334        0.3328810166969690    
     2.078395083829229        0.3308104154917932    
     2.091466751023123        0.3287223057989879    
     2.104538418217018        0.3266178360534130    
     2.117610085410912        0.3244981200110352    
     2.130681752604807        0.3223642376106028    
     2.143753419798701        0.3202172358190891    
     2.156825086992596        0.3180581294601341    
     2.169896754186491        0.3158879020253693    
     2.182968421380385        0.3137075064682734    
     2.196040088574279        0.3115178659806102    
     2.209111755768174        0.3093198747513642    
     2.222183422962068        0.3071143987084044    
     2.235255090155963        0.3049022762429635    
     2.248326757349858        0.3026843189172528    
     2.261398424543752        0.3004613121553981    
     2.274470091737647        0.2982340159180912    
     2.287541758931541        0.2960031653612007    
     2.300613426125436        0.2937694714787583    
     2.313685093319330        0.2915336217306094    
     2.326756760513224        0.2892962806551391    
     2.339828427707119        0.2870580904673741    
     2.352900094901014        0.2848196716428523    
     2.365971762094908        0.2825816234876062    
     2.379043429288803        0.2803445246945825    
     2.392115096482697        0.2781089338868584    
     2.405186763676592        0.2758753901479309    
     2.418258430870486        0.2736444135394757    
     2.431330098064381        0.2714165056068131    
     2.444401765258275        0.2691921498724125    
     2.457473432452170        0.2669718123177027    
     2.470545099646064        0.2647559418534636    
     2.483616766839959        0.2625449707791359    
     2.496688434033854        0.2603393152311725    
     2.509760101227748        0.2581393756208645    
     2.522831768421642        0.2559455370616612    
     2.535903435615537        0.2537581697864629    
     2.548975102809432        0.2515776295548995    
     2.562046770003326        0.2494042580509525    
     2.575118437197220        0.2472383832711028    
     2.588190104391115        0.2450803199031166    
     2.601261771585010        0.2429303696959000    
     2.614333438778904        0.2407888218202926    
     2.627405105972799        0.2386559532213424    
     2.640476773166693        0.2365320289619481    
     2.653548440360588        0.2344173025582236    
     2.666620107554482        0.2323120163067734    
     2.679691774748377        0.2302164016038404    
     2.692763441942271        0.2281306792568653    
     2.705835109136166        0.2260550597882074    
     2.718906776330060        0.2239897437315171    
     2.731978443523955        0.2219349219207770    
     2.745050110717849        0.2198907757720724    
     2.758121777911744        0.2178574775585599    
     2.771193445105638        0.2158351906783663    
     2.784265112299533        0.2138240699159235    
     2.797336779493428        0.2118242616967149    
     2.810408446687322        0.2098359043354839    
     2.823480113881216        0.2078591282783703    
     2.836551781075111        0.2058940563387018    
     2.849623448269005        0.2039408039268867    
     2.862695115462900        0.2019994792744466    
     2.875766782656795        0.2000701836521564    
     2.888838449850689        0.1981530115827744    
     2.901910117044584        0.1962480510481254    
     2.914981784238478        0.1943553836908506    
     2.928053451432373        0.1924750850109895    
     2.941125118626267        0.1906072245573004    
     2.954196785820161        0.1887518661136878    
     2.967268453014056        0.1869090678807047    
     2.980340120207951        0.1850788826522065    
     2.993411787401845        0.1832613579874534    
     3.006483454595740        0.1814565363785723    
     3.019555121789634        0.1796644554135794    
     3.032626788983529        0.1778851479350985    
     3.045698456177423        0.1761186421947900    
     3.058770123371318        0.1743649620036644    
     3.071841790565212        0.1726241268783621    
     3.084913457759107        0.1708961521834728    
     3.097985124953001        0.1691810492700241    
     3.111056792146896        0.1674788256102137    
     3.124128459340791        0.1657894849285015    
     3.137200126534685        0.1641130273290987    
     3.150271793728579        0.1624494494200031    
     3.163343460922474        0.1607987444336600    
     3.176415128116369        0.1591609023442615    
     3.189486795310263        0.1575359099818770    
     3.202558462504157        0.1559237511434445    
     3.215630129698052        0.1543244067006315    
     3.228701796891947        0.1527378547047929    
     3.241773464085841        0.1511640704890024    
     3.254845131279736        0.1496030267671958    
     3.267916798473630        0.1480546937306526    
     3.280988465667525        0.1465190391417477    
     3.294060132861419        0.1449960284250193    
     3.307131800055314        0.1434856247558003    
     3.320203467249208        0.1419877891463174    
     3.333275134443103        0.1405024805293222    
     3.346346801636997        0.1390296558394754    
     3.359418468830892        0.1375692700923948    
     3.372490136024786        0.1361212764614018    
     3.385561803218681        0.1346856263522116    
     3.398633470412575        0.1332622694754777    
     3.411705137606470        0.1318511539171925    
     3.424776804800365        0.1304522262071905    
     3.437848471994259        0.1290654313857063    
     3.450920139188153        0.1276907130679191    
     3.463991806382048        0.1263280135067466    
     3.477063473575942        0.1249772736538939    
     3.490135140769837        0.1236384332189903    
     3.503206807963732        0.1223114307271241    
     3.516278475157626        0.1209962035747983    
     3.529350142351521        0.1196926880840981    
     3.542421809545415        0.1184008195553824    
     3.555493476739310        0.1171205323185147    
     3.568565143933204        0.1158517597824805    
     3.581636811127098        0.1145944344836059    
     3.594708478320993        0.1133484881324195    
     3.607780145514888        0.1121138516590879    
     3.620851812708782        0.1108904552575067    
     3.633923479902677        0.1096782284281319    
     3.646995147096571        0.1084771000195559    
     3.660066814290466        0.1072869982687927    
     3.673138481484360        0.1061078508404061    
     3.686210148678255        0.1049395848645000    
     3.699281815872149        0.1037821269735080    
     3.712353483066044        0.1026354033379137    
     3.725425150259938        0.1014993397009030    
     3.738496817453833        0.1003738614119492    
     3.751568484647728        0.9925889345938020E-01
     3.764640151841622        0.9815436050195794E-01
     3.777711819035516        0.9706018689948788E-01
     3.790783486229411        0.9597629674248190E-01
     3.803855153423306        0.9490261388090859E-01
     3.816926820617200        0.9383906195203816E-01
     3.829998487811094        0.9278556440742824E-01
     3.843070155004989        0.9174204453905652E-01
     3.856141822198884        0.9070842550462356E-01
     3.869213489392778        0.8968463035204177E-01
     3.882285156586673        0.8867058204316136E-01
     3.895356823780567        0.8766620347671987E-01
     3.908428490974462        0.8667141751052625E-01
     3.921500158168356        0.8568614698295120E-01
     3.934571825362251        0.8471031473369674E-01
     3.947643492556145        0.8374384362387234E-01
     3.960715159750040        0.8278665655538626E-01
     3.973786826943934        0.8183867648971496E-01
     3.986858494137829        0.8089982646601353E-01
     3.999930161331723        0.7997002961859195E-01
     4.013001828525618        0.7904920919380483E-01
     4.026073495719512        0.7813728856634816E-01
     4.039145162913407        0.7723419125497533E-01
     4.052216830107302        0.7633984093763588E-01
     4.065288497301196        0.7545416146609751E-01
     4.078360164495090        0.7457707688001697E-01
     4.091431831688985        0.7370851142049115E-01
     4.104503498882879        0.7284838954309768E-01
     4.117575166076774        0.7199663593045674E-01
     4.130646833270669        0.7115317550430100E-01
     4.143718500464563        0.7031793343707382E-01
     4.156790167658458        0.6949083516307658E-01
     4.169861834852352        0.6867180638917088E-01
     4.182933502046247        0.6786077310504325E-01
     4.196005169240141        0.6705766159304953E-01
     4.209076836434035        0.6626239843764598E-01
     4.222148503627930        0.6547491053442057E-01
     4.235220170821824        0.6469512509873088E-01
     4.248291838015719        0.6392296967396800E-01
     4.261363505209614        0.6315837213944223E-01
     4.274435172403508        0.6240126071791067E-01
     4.287506839597403        0.6165156398275198E-01
     4.300578506791298        0.6090921086480618E-01
     4.313650173985192        0.6017413065886972E-01
     4.326721841179086        0.5944625302987364E-01
     4.339793508372981        0.5872550801874329E-01
     4.352865175566875        0.5801182604795827E-01
     4.365936842760770        0.5730513792680192E-01
     4.379008509954664        0.5660537485632680E-01
     4.392080177148559        0.5591246843403615E-01
     4.405151844342454        0.5522635065829411E-01
     4.418223511536348        0.5454695393246115E-01
     4.431295178730243        0.5387421106877520E-01
     4.444366845924137        0.5320805529197858E-01
     4.457438513118031        0.5254842024269795E-01
     4.470510180311926        0.5189523998058847E-01
     4.483581847505820        0.5124844898724431E-01
     4.496653514699715        0.5060798216888539E-01
     4.509725181893610        0.4997377485881938E-01
     4.522796849087504        0.4934576281970127E-01
     4.535868516281399        0.4872388224558145E-01
     4.548940183475294        0.4810806976375776E-01
     4.562011850669188        0.4749826243641875E-01
     4.575083517863082        0.4689439776212048E-01
     4.588155185056976        0.4629641367706895E-01
     4.601226852250871        0.4570424855623108E-01
     4.614298519444766        0.4511784121425779E-01
     4.627370186638660        0.4453713090626303E-01
     4.640441853832555        0.4396205732843286E-01
     4.653513521026449        0.4339256061848092E-01
     4.666585188220344        0.4282858135594128E-01
     4.679656855414239        0.4227006056232738E-01
     4.692728522608133        0.4171693970115151E-01
     4.705800189802027        0.4116916067780271E-01
     4.718871856995922        0.4062666583929209E-01
     4.731943524189816        0.4008939797386191E-01
     4.745015191383711        0.3955730031049291E-01
     4.758086858577606        0.3903031651827705E-01
     4.771158525771500        0.3850839070568119E-01
     4.784230192965395        0.3799146741968588E-01
     4.797301860159289        0.3747949164483902E-01
     4.810373527353184        0.3697240880219319E-01
     4.823445194547078        0.3647016474814688E-01
     4.836516861740972        0.3597270577318584E-01
     4.849588528934867        0.3547997860053646E-01
     4.862660196128761        0.3499193038473012E-01
     4.875731863322656        0.3450850871008047E-01
     4.888803530516551        0.3402966158907861E-01
     4.901875197710445        0.3355533746071275E-01
     4.914946864904340        0.3308548518870590E-01
     4.928018532098235        0.3262005405968506E-01
     4.941090199292129        0.3215899378127612E-01
     4.954161866486023        0.3170225448014582E-01
     4.967233533679918        0.3124978669996212E-01
     4.980305200873812        0.3080154139929929E-01
     4.993376868067707        0.3035746994948547E-01
     5.006448535261601        0.2991752413239190E-01
     5.019520202455496        0.2948165613818727E-01
     5.032591869649391        0.2904981856300560E-01
     5.045663536843285        0.2862196440659003E-01
     5.058735204037180        0.2819804706987827E-01
     5.071806871231074        0.2777802035256655E-01
     5.084878538424968        0.2736183845060859E-01
     5.097950205618863        0.2694945595367430E-01
     5.111021872812757        0.2654082784258157E-01
     5.124093540006652        0.2613590948668077E-01
     5.137165207200547        0.2573465664124086E-01
     5.150236874394441        0.2533702544475106E-01
     5.163308541588336        0.2494297241622230E-01
     5.176380208782231        0.2455245445245479E-01
     5.189451875976125        0.2416542882528060E-01
     5.202523543170019        0.2378185317879656E-01
     5.215595210363913        0.2340168552653813E-01
     5.228666877557808        0.2302488424865940E-01
     5.241738544751703        0.2265140808908171E-01
     5.254810211945597        0.2228121615264980E-01
     5.267881879139492        0.2191426790224107E-01
     5.280953546333386        0.2155052315583643E-01
     5.294025213527281        0.2118994208360852E-01
     5.307096880721176        0.2083248520476007E-01
     5.320168547915070        0.2047811338516459E-01
     5.333240215108964        0.2012678783403891E-01
     5.346311882302859        0.1977847010101470E-01
     5.359383549496753        0.1943312207324215E-01
     5.372455216690648        0.1909070597357554E-01
     5.385526883884543        0.1875118435423534E-01
     5.398598551078437        0.1841452009666605E-01
     5.411670218272332        0.1808067640795461E-01
     5.424741885466226        0.1774961681769426E-01
     5.437813552660121        0.1742130517335996E-01
     5.450885219854015        0.1709570564226316E-01
     5.463956887047909        0.1677278270394825E-01
     5.477028554241804        0.1645250114833621E-01
     5.490100221435698        0.1613482607283151E-01
     5.503171888629593        0.1581972287896162E-01
     5.516243555823488        0.1550715727051110E-01
     5.529315223017382        0.1519709524956340E-01
     5.542386890211277        0.1488950311392612E-01
     5.555458557405172        0.1458434745399726E-01
     5.568530224599066        0.1428159515692666E-01
     5.581601891792960        0.1398121338104242E-01
     5.594673558986855        0.1368316957604636E-01
     5.607745226180749        0.1338743147331906E-01
     5.620816893374644        0.1309396708235432E-01
     5.633888560568538        0.1280274468756210E-01
     5.646960227762433        0.1251373284493599E-01
     5.660031894956328        0.1222690037919933E-01
     5.673103562150222        0.1194221638099764E-01
     5.686175229344117        0.1165965020402555E-01
     5.699246896538011        0.1137917146218911E-01
     5.712318563731905        0.1110075002684059E-01
     5.725390230925800        0.1082435602390354E-01
     5.738461898119694        0.1054995983095571E-01
     5.751533565313589        0.1027753207437147E-01
     5.764605232507484        0.1000704362647428E-01
     5.777676899701378        0.9738465602687582E-02
     5.790748566895273        0.9471769358709482E-02
     5.803820234089168        0.9206926487720474E-02
     5.816891901283062        0.8943908817590464E-02
     5.829963568476956        0.8682688408098488E-02
     5.843035235670850        0.8423237548166030E-02
     5.856106902864745        0.8165528753099923E-02
     5.869178570058640        0.7909534761855184E-02
     5.882250237252534        0.7655228534307441E-02
     5.895321904446429        0.7402583248538900E-02
     5.908393571640323        0.7151572298141098E-02
     5.921465238834218        0.6902169291233703E-02
     5.934536906028113        0.6654348144692816E-02
     5.947608573222007        0.6408084258192487E-02
     5.960680240415901        0.6163359666639449E-02
     5.973751907609796        0.5920174250687324E-02
     5.986823574803690        0.5678560737904565E-02
     5.999895241997585        0.5438598732202395E-02
     6.012966909191480        0.5200424106177323E-02
     6.026038576385374        0.4964232445519603E-02
     6.039110243579269        0.4730277016547696E-02
     6.052181910773163        0.4498862562244239E-02
     6.065253577967058        0.4270336390875756E-02
     6.078325245160952        0.4045078041644111E-02
     6.091396912354846        0.3823488519433162E-02
     6.104468579548741        0.3605979798315914E-02
     6.117540246742635        0.3392965050163064E-02
     6.130611913936530        0.3184849867869361E-02
     6.143683581130425        0.2982024617946923E-02
     6.156755248324319        0.2784857964262146E-02
     6.169826915518214        0.2593691543189220E-02
     6.182898582712109        0.2408835731735950E-02
     6.195970249906003        0.2230566427445584E-02
     6.209041917099897        0.2059122747077477E-02
     6.222113584293792        0.1894705546599130E-02
     6.235185251487686        0.1737476665307987E-02
     6.248256918681581        0.1587558800195011E-02
     6.261328585875475        0.1445035921727589E-02
     6.274400253069370        0.1309954148239384E-02
     6.287471920263265        0.1182323002496875E-02
     6.300543587457159        0.1062116980385112E-02
     6.313615254651054        0.9492773677055995E-03
     6.326686921844948        0.8437142466063384E-03
     6.339758589038842        0.7453086379014170E-03
     6.352830256232737        0.6539147292079530E-03
     6.365901923426631        0.5693621409616022E-03
     6.378973590620526        0.4914581822062366E-03
     6.392045257814421        0.4199900441564553E-03
     6.405116925008315        0.3547268692142536E-03
     6.418188592202210        0.2954216109004026E-03
     6.431260259396105        0.2418125543922930E-03
     6.444331926589999        0.1936242713913232E-03
     6.457403593783893        0.1505675706283288E-03
     6.470475260977787        0.1123374931155029E-03
     6.483546928171682        0.7860700522258803E-04
     6.496618595365577        0.4900949699430480E-04
     6.509690262559471        0.2308356095482575E-04
     6.522761929753366         0.000000000000000    
  0  3  2  0  0.000000   #orbital l, n, z, is_polarized, population
 500    0.9196309151007746E-02     4.588958266352865     # npts, delta, cutoff
     0.000000000000000       -0.3573337092727429E-01
    0.9196309151007746E-02   -0.3569566690985941E-01
    0.1839261830201549E-01   -0.3557870824980388E-01
    0.2758892745302324E-01   -0.3538374590258108E-01
    0.3678523660403098E-01   -0.3511073532645360E-01
    0.4598154575503873E-01   -0.3475961491524175E-01
    0.5517785490604647E-01   -0.3433030738797625E-01
    0.6437416405705422E-01   -0.3382272129200561E-01
    0.7357047320806197E-01   -0.3323675278032120E-01
    0.8276678235906972E-01   -0.3257228766634047E-01
    0.9196309151007746E-01   -0.3182920374134848E-01
    0.1011594006610852       -0.3100737333460895E-01
    0.1103557098120929       -0.3010666609327062E-01
    0.1195520189631007       -0.2912695195704009E-01
    0.1287483281141084       -0.2806810430079369E-01
    0.1379446372651162       -0.2693000321682969E-01
    0.1471409464161239       -0.2571253890726463E-01
    0.1563372555671317       -0.2441561515617752E-01
    0.1655335647181394       -0.2303915285049443E-01
    0.1747298738691472       -0.2158309351829719E-01
    0.1839261830201549       -0.2004740285322891E-01
    0.1931224921711627       -0.1843207419394394E-01