<preamble>

<basis_specs>
===============================================================================
Au                   Z=  79    Mass=  196.97        Charge= 0.17977+309
Lmxo=2 Lmxkb= 3    BasisType=split      Semic=T
L=0  Nsemic=1  Cnfigmx=6
          i=1  nzeta=1  polorb=0  (5s)  (semicore shell)
            splnorm:   0.15000    
               vcte:    40.000    
               rinn:    2.2854    
               qcoe:    0.0000    
               qyuk:    0.0000    
               qwid:   0.10000E-01
                rcs:    2.5368    
            lambdas:    1.0000    
          i=2  nzeta=2  polorb=0  (6s)  (to be polarized non-perturbatively)
            splnorm:   0.15000    
               vcte:    40.000    
               rinn:    5.8764    
               qcoe:    0.0000    
               qyuk:    0.0000    
               qwid:   0.10000E-01
                rcs:    6.5228      4.5890    
            lambdas:    1.0000      1.0000    
L=1  Nsemic=1  Cnfigmx=6
          i=1  nzeta=1  polorb=0  (5p)  (semicore shell)
            splnorm:   0.15000    
               vcte:    40.000    
               rinn:    2.7051    
               qcoe:    0.0000    
               qyuk:    0.0000    
               qwid:   0.10000E-01
                rcs:    3.0027    
            lambdas:    1.0000    
          i=2  nzeta=1  polorb=0  (6p)  (non-perturbative polarization shell)
            splnorm:   0.15000    
               vcte:    40.000    
               rinn:    5.8764    
               qcoe:    0.0000    
               qyuk:    0.0000    
               qwid:   0.10000E-01
                rcs:    6.5228    
            lambdas:    1.0000    
L=2  Nsemic=0  Cnfigmx=5
          i=1  nzeta=2  polorb=0  (5d)
            splnorm:   0.15000    
               vcte:    40.000    
               rinn:    4.5108    
               qcoe:    0.0000    
               qyuk:    0.0000    
               qwid:   0.10000E-01
                rcs:    5.0070      3.2244    
            lambdas:    1.0000      1.0000    
-------------------------------------------------------------------------------
L=0  Nkbl=2  erefs: 0.17977+309 0.17977+309
L=1  Nkbl=2  erefs: 0.17977+309 0.17977+309
L=2  Nkbl=1  erefs: 0.17977+309
L=3  Nkbl=1  erefs: 0.17977+309
===============================================================================
</basis_specs>

<pseudopotential_header>
 Au pb nrl pcec
 ONCVPSP-3.2017-10-31Hamann's oncvpsp                        
 5s 2.00  r= 1.46/5p 6.00  r= 1.56/5d10.00  r= 1.56/5f 0.00  r= 1.60/   5s:5p:5d:6s:
</pseudopotential_header>
</preamble>
Au                            # Symbol
Au                            # Label
   79                         # Atomic number
     19.0000000000                             # Valence charge
     196.970000000        # Mass 
     373.212323316        # Self energy 
   2   7                      # Lmax for basis, no. of nl orbitals 
   3   7                      # Lmax for projectors, no. of nl KB projectors
# PAOs:__________________________
  0  5  1  0  2.000000   #orbital l, n, z, is_polarized, population
 500    0.5083727444059211E-02     2.536779994585546     # npts, delta, cutoff
     0.000000000000000        0.9626079248834184    
    0.5083727444059211E-02    0.9626802597508961    
    0.1016745488811842E-01    0.9629883969697993    
    0.1525118233217763E-01    0.9635017629454079    
    0.2033490977623684E-01    0.9642199888328501    
    0.2541863722029605E-01    0.9651425765980385    
    0.3050236466435527E-01    0.9662688893811053    
    0.3558609210841448E-01    0.9675981505284984    
    0.4066981955247369E-01    0.9691294437973993    
    0.4575354699653290E-01    0.9708617138991487    
    0.5083727444059211E-01    0.9727937672145875    
    0.5592100188465132E-01    0.9749242726352930    
    0.6100472932871053E-01    0.9772517625148941    
    0.6608845677276974E-01    0.9797746337238964    
    0.7117218421682896E-01    0.9824911488047080    
    0.7625591166088816E-01    0.9853994372247773    
    0.8133963910494738E-01    0.9884974967263198    
    0.8642336654900659E-01    0.9917831947712353    
    0.9150709399306579E-01    0.9952542700799580    
    0.9659082143712501E-01    0.9989083342629174    
    0.1016745488811842         1.002742873543287    
    0.1067582763252434         1.006755250569645    
    0.1118420037693026         1.010942706317100    
    0.1169257312133618         1.015302362075393    
    0.1220094586574211         1.019831221522403    
    0.1270931861014803         1.024526172881433    
    0.1321769135455395         1.029383991160586    
    0.1372606409895987         1.034401340472460    
    0.1423443684336579         1.039574776432357    
    0.1474280958777171         1.044900748633109    
    0.1525118233217763         1.050375603194586    
    0.1575955507658355         1.055995585385866    
    0.1626792782098948         1.061756842318018    
    0.1677630056539540         1.067655425705362    
    0.1728467330980132         1.073687294693032    
    0.1779304605420724         1.079848318748607    
    0.1830141879861316         1.086134280615533    
    0.1880979154301908         1.092540879325978    
    0.1931816428742500         1.099063733270745    
    0.1982653703183092         1.105698383323818    
    0.2033490977623684         1.112440296019037    
    0.2084328252064276         1.119284866776390    
    0.2135165526504869         1.126227423175359    
    0.2186002800945461         1.133263228272699    
    0.2236840075386053         1.140387483962012    
    0.2287677349826645         1.147595334372442    
    0.2338514624267237         1.154881869303762    
    0.2389351898707829         1.162242127695107    
    0.2440189173148421         1.169671101124599    
    0.2491026447589013         1.177163737337026    
    0.2541863722029605         1.184714943796778    
    0.2592700996470197         1.192319591263170    
    0.2643538270910790         1.199972517385297    
    0.2694375545351382         1.207668530313517    
    0.2745212819791974         1.215402412324673    
    0.2796050094232566         1.223168923458143    
    0.2846887368673158         1.230962805159769    
    0.2897724643113750         1.238778783930759    
    0.2948561917554343         1.246611574978627    
    0.2999399191994934         1.254455885867195    
    0.3050236466435526         1.262306420162770    
    0.3101073740876119         1.270157881073529    
    0.3151911015316711         1.278004975079194    
    0.3202748289757303         1.285842415548072    
    0.3253585564197895         1.293664926338563    
    0.3304422838638487         1.301467245382228    
    0.3355260113079079         1.309244128245559    
    0.3406097387519672         1.316990351667582    
    0.3456934661960264         1.324700717070445    
    0.3507771936400856         1.332370054040219    
    0.3558609210841447         1.339993223775108    
    0.3609446485282040         1.347565122498310    
    0.3660283759722632         1.355080684832826    
    0.3711121034163224         1.362534887135555    
    0.3761958308603816         1.369922750787982    
    0.3812795583044408         1.377239345440923    
    0.3863632857485000         1.384479792210721    
    0.3914470131925593         1.391639266824407    
    0.3965307406366185         1.398713002711373    
    0.4016144680806777         1.405696294039136    
    0.4066981955247368         1.412584498690851    
    0.4117819229687961         1.419373041182255    
    0.4168656504128553         1.426057415515851    
    0.4219493778569145         1.432633187970100    
    0.4270331053009737         1.439095999821562    
    0.4321168327450329         1.445441569997898    
    0.4372005601890921         1.451665697659782    
    0.4422842876331514         1.457764264709821    
    0.4473680150772106         1.463733238226609    
    0.4524517425212698         1.469568672822205    
    0.4575354699653290         1.475266712921322    
    0.4626191974093882         1.480823594960613    
    0.4677029248534474         1.486235649506553    
    0.4727866522975066         1.491499303290445    
    0.4778703797415658         1.496611081159209    
    0.4829541071856250         1.501567607940643    
    0.4880378346296843         1.506365610222001    
    0.4931215620737435         1.511001918040745    
    0.4982052895178027         1.515473466486464    
    0.5032890169618619         1.519777297213036    
    0.5083727444059211         1.523910559860174    
    0.5134564718499803         1.527870513383607    
    0.5185401992940395         1.531654527293251    
    0.5236239267380988         1.535260082798773    
    0.5287076541821579         1.538684773862092    
    0.5337913816262172         1.541926308156416    
    0.5388751090702764         1.544982507931533    
    0.5439588365143355         1.547851310785142    
    0.5490425639583948         1.550530770340141    
    0.5541262914024540         1.553019056827813    
    0.5592100188465132         1.555314457577040    
    0.5642937462905724         1.557415377409659    
    0.5693774737346317         1.559320338942275    
    0.5744612011786908         1.561027982794838    
    0.5795449286227501         1.562537067706445    
    0.5846286560668092         1.563846470558885    
    0.5897123835108685         1.564955186308595    
    0.5947961109549277         1.565862327827647    
    0.5998798383989868         1.566567125654628    
    0.6049635658430461         1.567068927656289    
    0.6100472932871053         1.567367198600873    
    0.6151310207311645         1.567461519644232    
    0.6202147481752237         1.567351587729805    
    0.6252984756192830         1.567037214903696    
    0.6303822030633421         1.566518327546122    
    0.6354659305074014         1.565794965520575    
    0.6405496579514606         1.564867281242150    
    0.6456333853955198         1.563735538666532    
    0.6507171128395790         1.562400112201217    
    0.6558008402836382         1.560861485540582    
    0.6608845677276974         1.559120250426553    
    0.6659682951717566         1.557177105336592    
    0.6710520226158159         1.555032854100853    
    0.6761357500598750         1.552688404450381    
    0.6812194775039343         1.550144766498304    
    0.6863032049479935         1.547403051155989    
    0.6913869323920527         1.544464468486222    
    0.6964706598361119         1.541330325995478    
    0.7015543872801712         1.538002026867428    
    0.7066381147242303         1.534481068139847    
    0.7117218421682895         1.530769038827145    
    0.7168055696123488         1.526867617990744    
    0.7218892970564079         1.522778572759599    
    0.7269730245004672         1.518503756303155    
    0.7320567519445264         1.514045105759090    
    0.7371404793885856         1.509404640118202    
    0.7422242068326448         1.504584458068781    
    0.7473079342767041         1.499586735802914    
    0.7523916617207632         1.494413730454058    
    0.7574753891648225         1.489067768203298    
    0.7625591166088816         1.483551236699603    
    0.7676428440529408         1.477866599538199    
    0.7727265714970001         1.472016386361924    
    0.7778102989410592         1.466003190490765    
    0.7828940263851185         1.459829666529399    
    0.7879777538291777         1.453498527956080    
    0.7930614812732369         1.447012544695252    
    0.7981452087172961         1.440374540676334    
    0.8032289361613554         1.433587391381042    
    0.8083126636054145         1.426654021381626    
    0.8133963910494737         1.419577401872375    
    0.8184801184935330         1.412360548196724    
    0.8235638459375921         1.405006517372246    
    0.8286475733816514         1.397518405615828    
    0.8337313008257106         1.389899345871257    
    0.8388150282697698         1.382152505341433    
    0.8438987557138290         1.374281083027395    
    0.8489824831578883         1.366288307276268    
    0.8540662106019474         1.358177433340260    
    0.8591499380460067         1.349951740948764    
    0.8642336654900659         1.341614531895561    
    0.8693173929341250         1.333169127643082    
    0.8744011203781843         1.324618866945680    
    0.8794848478222435         1.315967103493766    
    0.8845685752663027         1.307217203580625    
    0.8896523027103619         1.298372543793681    
    0.8947360301544212         1.289436508731925    
    0.8998197575984803         1.280412488751167    
    0.9049034850425396         1.271303877738693    
    0.9099872124865988         1.262114070918916    
    0.9150709399306580         1.252846462691445    
    0.9201546673747172         1.243504444503050    
    0.9252383948187763         1.234091402754834    
    0.9303221222628356         1.224610716745990    
    0.9354058497068948         1.215065756655295    
    0.9404895771509540         1.205459881561598    
    0.9455733045950132         1.195796437504348    
    0.9506570320390725         1.186078755585270    
    0.9557407594831316         1.176310150112149    
    0.9608244869271909         1.166493916785644    
    0.9659082143712501         1.156633330930012    
    0.9709919418153093         1.146731645768499    
    0.9760756692593685         1.136792090744194    
    0.9811593967034277         1.126817869886932    
    0.9862431241474869         1.116812160226938    
    0.9913268515915461         1.106778110255668    
    0.9964105790356054         1.096718838434405    
     1.001494306479665         1.086637431750967    
     1.006578033923724         1.076536944324914    
     1.011661761367783         1.066420396061568    
     1.016745488811842         1.056290771355022    
     1.021829216255902         1.046151017840375    
     1.026912943699961         1.036004045195253    
     1.031996671144020         1.025852723990743    
     1.037080398588079         1.015699884591710    
     1.042164126032138         1.005548316106442    
     1.047247853476198        0.9954007653855427    
     1.052331580920257        0.9852599360698827    
     1.057415308364316        0.9751284876874482    
     1.062499035808375        0.9650090347987724    
     1.067582763252434        0.9549041461906956    
     1.072666490696494        0.9448163441181174    
     1.077750218140553        0.9347481035932895    
     1.082833945584612        0.9247018517222396    
     1.087917673028671        0.9146799670878176    
     1.093001400472730        0.9046847791788758    
     1.098085127916790        0.8947185678650248    
     1.103168855360849        0.8847835629163345    
     1.108252582804908        0.8748819435673659    
     1.113336310248967        0.8650158381248443    
     1.118420037693026        0.8551873236183063    
     1.123503765137086        0.8453984254929708    
     1.128587492581145        0.8356511173440695    
     1.133671220025204        0.8259473206918649    
     1.138754947469263        0.8162889047965307    
     1.143838674913322        0.8066776865120715    
     1.148922402357382        0.7971154301784041    
     1.154006129801441        0.7876038475507582    
     1.159089857245500        0.7781445977654766    
     1.164173584689559        0.7687392873413031    
     1.169257312133618        0.7593894702152862    
     1.174341039577678        0.7500966478122630    
     1.179424767021737        0.7408622691470442    
     1.184508494465796        0.7316877309583472    
     1.189592221909855        0.7225743778734570    
     1.194675949353915        0.7135235026027001    
     1.199759676797974        0.7045363461627527    
     1.204843404242033        0.6956140981277165    
     1.209927131686092        0.6867578969071066    
     1.215010859130151        0.6779688300496949    
     1.220094586574211        0.6692479345722104    
     1.225178314018270        0.6605961973120008    
     1.230262041462329        0.6520145553026256    
     1.235345768906388        0.6435038961713854    
     1.240429496350447        0.6350650585579537    
     1.245513223794507        0.6266988325530073    
     1.250596951238566        0.6184059601559755    
     1.255680678682625        0.6101871357510593    
     1.260764406126684        0.6020430066004575    
     1.265848133570743        0.5939741733539741    
     1.270931861014803        0.5859811905741852    
     1.276015588458862        0.5780645672761203    
     1.281099315902921        0.5702247674807024    
     1.286183043346980        0.5624622107811861    
     1.291266770791040        0.5547772729215613    
     1.296350498235099        0.5471702863862625    
     1.301434225679158        0.5396415410004430    
     1.306517953123217        0.5321912845398659    
     1.311601680567276        0.5248197233497993    
     1.316685408011336        0.5175270229722365    
     1.321769135455395        0.5103133087805722    
     1.326852862899454        0.5031786666211510    
     1.331936590343513        0.4961231434611152    
     1.337020317787573        0.4891467480417396    
     1.342104045231632        0.4822494515367400    
     1.347187772675691        0.4754311882150219    
     1.352271500119750        0.4686918561071950    
     1.357355227563809        0.4620313176753564    
     1.362438955007869        0.4554494004856652    
     1.367522682451928        0.4489458978832188    
     1.372606409895987        0.4425205696686447    
     1.377690137340046        0.4361731427761294    
     1.382773864784105        0.4299033119524238    
     1.387857592228165        0.4237107404363261    
     1.392941319672224        0.4175950606384061    
     1.398025047116283        0.4115558748206499    
     1.403108774560342        0.4055927557754416    
     1.408192502004401        0.3997052474910371    
     1.413276229448461        0.3938928657074339    
     1.418359956892520        0.3881550987506438    
     1.423443684336579        0.3824914084178938    
     1.428527411780638        0.3769012309859966    
     1.433611139224698        0.3713839776102522    
     1.438694866668757        0.3659390336555495    
     1.443778594112816        0.3605657587708883    
     1.448862321556875        0.3552634876213888    
     1.453946049000934        0.3500315334254047    
     1.459029776444994        0.3448691921351901    
     1.464113503889053        0.3397757468658156    
     1.469197231333112        0.3347504725448274    
     1.474280958777171        0.3297926402949478    
     1.479364686221230        0.3249015213463337    
     1.484448413665290        0.3200763898626922    
     1.489532141109349        0.3153165228940252    
     1.494615868553408        0.3106212000039164    
     1.499699595997467        0.3059897022354142    
     1.504783323441526        0.3014213121754781    
     1.509867050885586        0.2969153145264190    
     1.514950778329645        0.2924709964955092    
     1.520034505773704        0.2880876482186767    
     1.525118233217763        0.2837645628468977    
     1.530201960661822        0.2795010367160627    
     1.535285688105882        0.2752963695372261    
     1.540369415549941        0.2711498645702332    
     1.545453142994000        0.2670608287897952    
     1.550536870438059        0.2630285730569357    
     1.555620597882118        0.2590524122192205    
     1.560704325326178        0.2551316652984953    
     1.565788052770237        0.2512656556173589    
     1.570871780214296        0.2474537109160442    
     1.575955507658355        0.2436951634422128    
     1.581039235102415        0.2399893500927620    
     1.586122962546474        0.2363356124655956    
     1.591206689990533        0.2327332970489149    
     1.596290417434592        0.2291817552592141    
     1.601374144878651        0.2256803434998196    
     1.606457872322711        0.2222284232675767    
     1.611541599766770        0.2188253611806517    
     1.616625327210829        0.2154705290836550    
     1.621709054654888        0.2121633040997315    
     1.626792782098947        0.2089030686857896    
     1.631876509543007        0.2056892106551720    
     1.636960236987066        0.2025211232486715    
     1.642043964431125        0.1993982051644356    
     1.647127691875184        0.1963198605931752    
     1.652211419319244        0.1932854992558122    
     1.657295146763303        0.1902945364200846    
     1.662378874207362        0.1873463929275382    
     1.667462601651421        0.1844404952117016    
     1.672546329095481        0.1815762753128308    
     1.677630056539540        0.1787531708919046    
     1.682713783983599        0.1759706252384576    
     1.687797511427658        0.1732280872762947    
     1.692881238871717        0.1705250115661163    
     1.697964966315777        0.1678608583052239    
     1.703048693759836        0.1652350933247016    
     1.708132421203895        0.1626471880838300    
     1.713216148647954        0.1600966196620991    
     1.718299876092013        0.1575828707488743    
     1.723383603536073        0.1551054296307579    
     1.728467330980132        0.1526637901767548    
     1.733551058424191        0.1502574518214430    
     1.738634785868250        0.1478859195462261    
     1.743718513312309        0.1455487038586969    
     1.748802240756369        0.1432453207702094    
     1.753885968200428        0.1409752917718047    
     1.758969695644487        0.1387381438085957    
     1.764053423088546        0.1365334092526047    
     1.769137150532605        0.1343606258741772    
     1.774220877976665        0.1322193368120334    
     1.779304605420724        0.1301090905421200    
     1.784388332864783        0.1280294408452051    
     1.789472060308842        0.1259799467733576    
     1.794555787752901        0.1239601726153388    
     1.799639515196961        0.1219696878610405    
     1.804723242641020        0.1200080671649494    
     1.809806970085079        0.1180748903087494    
     1.814890697529138        0.1161697421630567    
     1.819974424973198        0.1142922126484534    
     1.825058152417257        0.1124418966957662    
     1.830141879861316        0.1106183942056837    
     1.835225607305375        0.1088213100077662    
     1.840309334749434        0.1070502538188707    
     1.845393062193494        0.1053048402010584    
     1.850476789637553        0.1035846885190157    
     1.855560517081612        0.1018894228970378    
     1.860644244525671        0.1002186721756124    
     1.865727971969730        0.9857206986762837E-01
     1.870811699413790        0.9694925411426578E-01
     1.875895426857849        0.9534986764058626E-01
     1.880979154301908        0.9377355771089839E-01
     1.886062881745967        0.9221997608383779E-01
     1.891146609190026        0.9068877896728944E-01
     1.896230336634086        0.8917962697312411E-01
     1.901314064078145        0.8769218507183683E-01
     1.906397791522204        0.8622612254702799E-01
     1.911481518966263        0.8478111294980496E-01
     1.916565246410322        0.8335683405313370E-01
     1.921648973854382        0.8195296780614683E-01
     1.926732701298441        0.8056920028847982E-01
     1.931816428742500        0.7920522166452616E-01
     1.936900156186559        0.7786072613777939E-01
     1.941983883630619        0.7653541190519260E-01
     1.947067611074678        0.7522898111166210E-01
     1.952151338518737        0.7394113980452338E-01
     1.957235065962796        0.7267159788815911E-01
     1.962318793406855        0.7142006907874042E-01
     1.967402520850915        0.7018627085907693E-01
     1.972486248294974        0.6896992443369054E-01
     1.977569975739033        0.6777075468391647E-01
     1.982653703183092        0.6658849012325938E-01
     1.987737430627152        0.6542286285290405E-01
     1.992821158071211        0.6427360851745792E-01
     1.997904885515270        0.6314046626088368E-01
     2.002988612959329        0.6202317868260036E-01
     2.008072340403388        0.6092149179386371E-01
     2.013156067847448        0.5983515497434317E-01
     2.018239795291507        0.5876392092903095E-01
     2.023323522735566        0.5770754564528889E-01
     2.028407250179625        0.5666578835020314E-01
     2.033490977623684        0.5563841146821075E-01
     2.038574705067743        0.5462518057897710E-01
     2.043658432511803        0.5362586437563840E-01
     2.048742159955862        0.5264023462319263E-01
     2.053825887399921        0.5166806611726624E-01
     2.058909614843980        0.5070913664315618E-01
     2.063993342288040        0.4976322693517090E-01
     2.069077069732099        0.4883012063632636E-01
     2.074160797176158        0.4790960425824489E-01
     2.079244524620217        0.4700146714144032E-01
     2.084328252064276        0.4610550141589260E-01
     2.089411979508336        0.4522150196195781E-01
     2.094495706952395        0.4434926637160831E-01
     2.099579434396454        0.4348859490993369E-01
     2.104663161840513        0.4263929047701839E-01
     2.109746889284573        0.4180115857012288E-01
     2.114830616728632        0.4097400724621589E-01
     2.119914344172691        0.4015764708482576E-01
     2.124998071616750        0.3935189115118747E-01
     2.130081799060809        0.3855655495975369E-01
     2.135165526504869        0.3777145643802032E-01
     2.140249253948928        0.3699641589070438E-01
     2.145332981392987        0.3623125596423816E-01
     2.150416708837046        0.3547580161157396E-01
     2.155500436281105        0.3472988005734331E-01
     2.160584163725165        0.3399332076333418E-01
     2.165667891169224        0.3326595539431013E-01
     2.170751618613283        0.3254761778415396E-01
     2.175835346057342        0.3183814390231680E-01
     2.180919073501402        0.3113737182061454E-01
     2.186002800945461        0.3044514168034218E-01
     2.191086528389520        0.2976129565971315E-01
     2.196170255833579        0.2908567794162985E-01
     2.201253983277638        0.2841813468174913E-01
     2.206337710721697        0.2775851397688585E-01
     2.211421438165757        0.2710666583372797E-01
     2.216505165609816        0.2646244213786389E-01
     2.221588893053875        0.2582569662313428E-01
     2.226672620497935        0.2519628484127376E-01
     2.231756347941994        0.2457406413187585E-01
     2.236840075386053        0.2395889359265937E-01
     2.241923802830112        0.2335063405003768E-01
     2.247007530274171        0.2274914802999218E-01
     2.252091257718230        0.2215429972924003E-01
     2.257174985162290        0.2156595498670094E-01
     2.262258712606349        0.2098398125525573E-01
     2.267342440050408        0.2040824757379749E-01
     2.272426167494467        0.1983862453956609E-01
     2.277509894938527        0.1927498428077264E-01
     2.282593622382586        0.1871720042950471E-01
     2.287677349826645        0.1816514809491009E-01
     2.292761077270704        0.1761870383665885E-01
     2.297844804714763        0.1707774563867540E-01
     2.302928532158822        0.1654215288471638E-01
     2.308012259602882        0.1601180642284614E-01
     2.313095987046941        0.1548658964113099E-01
     2.318179714491000        0.1496639330177904E-01
     2.323263441935060        0.1445112619472466E-01
     2.328347169379119        0.1394072963470726E-01
     2.333430896823178        0.1343519141691673E-01
     2.338514624267237        0.1293455576969133E-01
     2.343598351711296        0.1243892798207196E-01
     2.348682079155355        0.1194847403337278E-01
     2.353765806599414        0.1146341634169467E-01
     2.358849534043474        0.1098402691610919E-01
     2.363933261487533        0.1051061904920337E-01
     2.369016988931592        0.1004353843018032E-01
     2.374100716375652        0.9583154300896271E-02
     2.379184443819711        0.9129851061017139E-02
     2.384268171263770        0.8684020563646550E-02
     2.389351898707829        0.8246055224820503E-02
     2.394435626151888        0.7816341989765826E-02
     2.399519353595947        0.7395257146588638E-02
     2.404603081040007        0.6983161945915444E-02
     2.409686808484066        0.6580398966810758E-02
     2.414770535928125        0.6187289160423320E-02
     2.419854263372184        0.5804129500001915E-02
     2.424937990816244        0.5431191166810538E-02
     2.430021718260303        0.5068718204584453E-02
     2.435105445704362        0.4716926579345419E-02
     2.440189173148421        0.4376003585929619E-02
     2.445272900592480        0.4046107546995634E-02
     2.450356628036540        0.3727367754114816E-02
     2.455440355480599        0.3419884603536011E-02
     2.460524082924658        0.3123729880934701E-02
     2.465607810368717        0.2838947149419694E-02
     2.470691537812777        0.2565552192484751E-02
     2.475775265256836        0.2303533457182420E-02
     2.480858992700895        0.2052852430255941E-02
     2.485942720144954        0.1813443857232191E-02
     2.491026447589014        0.1585215673727653E-02
     2.496110175033073        0.1368048444031709E-02
     2.501193902477132        0.1161793961956173E-02
     2.506277629921191        0.9662723900408038E-03
     2.511361357365250        0.7812667169356603E-03
     2.516445084809309        0.6065119131022427E-03
     2.521528812253369        0.4416724390602195E-03
     2.526612539697428        0.2862899043735152E-03
     2.531696267141487        0.1396326854270766E-03
     2.536779994585546         0.000000000000000    
  0  6  1  0  1.000000   #orbital l, n, z, is_polarized, population
 500    0.1307166719389452E-01     6.522761929753366     # npts, delta, cutoff
     0.000000000000000        0.6016049327766375    
    0.1307166719389452E-01    0.6018830165111866    