<preamble>

<basis_specs>
===============================================================================
B                    Z=   5    Mass=  10.810        Charge= 0.17977+309
Lmxo=2 Lmxkb= 1    BasisType=split      Semic=F
L=0  Nsemic=0  Cnfigmx=2
          i=1  nzeta=2  polorb=0  (2s)
            splnorm:   0.15000    
               vcte:    40.000    
               rinn:    5.0465    
               qcoe:    0.0000    
               qyuk:    0.0000    
               qwid:   0.10000E-01
                rcs:    5.6016      3.7856    
            lambdas:    1.0000      1.0000    
L=1  Nsemic=0  Cnfigmx=2
          i=1  nzeta=2  polorb=1  (2p)  (to be polarized perturbatively)
            splnorm:   0.15000    
               vcte:    40.000    
               rinn:    6.2341    
               qcoe:    0.0000    
               qyuk:    0.0000    
               qwid:   0.10000E-01
                rcs:    6.9267      4.7007    
            lambdas:    1.0000      1.0000    
L=2  Nsemic=0  Cnfigmx=3
          i=1  nzeta=0  polorb=0  (3d)  (perturbative polarization orbital) (from 2p)
-------------------------------------------------------------------------------
L=0  Nkbl=1  erefs: 0.17977+309
L=1  Nkbl=1  erefs: 0.17977+309
===============================================================================
</basis_specs>

<pseudopotential_header>
 B  pb nrl pcec
 ONCVPSP-3.2017-10-31Hamann's oncvpsp                        
 2s 2.00  r= 1.21/2p 1.00  r= 1.21/                                     2s:2p:
</pseudopotential_header>
</preamble>
B                             # Symbol
B                             # Label
    5                         # Atomic number
     3.00000000000                             # Valence charge
     10.8100000000        # Mass 
     11.4755416121        # Self energy 
   2   5                      # Lmax for basis, no. of nl orbitals 
   1   4                      # Lmax for projectors, no. of nl KB projectors
# PAOs:__________________________
  0  2  1  0  2.000000   #orbital l, n, z, is_polarized, population
 500    0.1122558304314611E-01     5.601565938529907     # npts, delta, cutoff
     0.000000000000000        0.2933286681392931    
    0.1122558304314611E-01    0.2934417105489245    
    0.2245116608629221E-01    0.2937849424323257    
    0.3367674912943831E-01    0.2943560363996741    
    0.4490233217258442E-01    0.2951535617775447    
    0.5612791521573053E-01    0.2961755352533934    
    0.6735349825887663E-01    0.2974194394498577    
    0.7857908130202274E-01    0.2988822464284155    
    0.8980466434516884E-01    0.3005604455082371    
    0.1010302473883150        0.3024500748516539    
    0.1122558304314611        0.3045467562141778    
    0.1234814134746072        0.3068457322047670    
    0.1347069965177533        0.3093419053620450    
    0.1459325795608994        0.3120298783268620    
    0.1571581626040455        0.3149039943817843    
    0.1683837456471916        0.3179583776340062    
    0.1796093286903377        0.3211869721397106    
    0.1908349117334838        0.3245835793044459    
    0.2020604947766299        0.3281418929448491    
    0.2132860778197760        0.3318555314607376    
    0.2245116608629221        0.3357180666418328    
    0.2357372439060682        0.3397230487183553    
    0.2469628269492143        0.3438640273575241    
    0.2581884099923604        0.3481345684064832    
    0.2694139930355065        0.3525282662841283    
    0.2806395760786526        0.3570387520273543    
    0.2918651591217987        0.3616596970991748    
    0.3030907421649449        0.3663848131645119    
    0.3143163252080909        0.3712078481322159    
    0.3255419082512371        0.3761225788468002    
    0.3367674912943832        0.3811228008886798    
    0.3479930743375293        0.3862023160057158    
    0.3592186573806754        0.3913549177502079    
    0.3704442404238215        0.3965743759328798    
    0.3816698234669676        0.4018544205284730    
    0.3928954065101137        0.4071887256753226    
    0.4041209895532598        0.4125708944041086    
    0.4153465725964059        0.4179944447088162    
    0.4265721556395520        0.4234527975364920    
    0.4377977386826981        0.4289392672224623    
    0.4490233217258442        0.4344470548356261    
    0.4602489047689903        0.4399692448256136    
    0.4714744878121364        0.4454988052817466    
    0.4827000708552825        0.4510285920248018    
    0.4939256538984286        0.4565513566586560    
    0.5051512369415747        0.4620597586119699    
    0.5163768199847208        0.4675463811028464    
    0.5276024030278670        0.4730037508633214    
    0.5388279860710130        0.4784243613687977    
    0.5500535691141591        0.4838006992313314    
    0.5612791521573053        0.4891252733374691    
    0.5725047352004514        0.4943906462428578    
    0.5837303182435974        0.4995894672783497    
    0.5949559012867436        0.5047145067774766    
    0.6061814843298897        0.5097586908036039    
    0.6174070673730359        0.5147151357378115    
    0.6286326504161819        0.5195771820855914    
    0.6398582334593280        0.5243384268721379    
    0.6510838165024742        0.5289927540218440    
    0.6623093995456202        0.5335343621570188    
    0.6735349825887663        0.5379577893029540    
    0.6847605656319125        0.5422579340498842    
    0.6959861486750586        0.5464300727959216    
    0.7072117317182046        0.5504698727766963    
    0.7184373147613508        0.5543734006755722    
    0.7296628978044969        0.5581371267007891    
    0.7408884808476429        0.5617579241107099    
    0.7521140638907891        0.5652330642632168    
    0.7633396469339352        0.5685602073583437    
    0.7745652299770813        0.5717373891320413    
    0.7857908130202274        0.5747630038419130    
    0.7970163960633735        0.5776357839606935    
    0.8082419791065196        0.5803547770587657    
    0.8194675621496657        0.5829193204116203    
    0.8306931451928118        0.5853290139105514    
    0.8419187282359579        0.5875836918844796    
    0.8531443112791041        0.5896833944567834    
    0.8643698943222501        0.5916283390630400    
    0.8755954773653962        0.5934188927439793    
    0.8868210604085424        0.5950555458029023    
    0.8980466434516885        0.5965388873787195    
    0.9092722264948345        0.5978695834362110    
    0.9204978095379807        0.5990483576143444    
    0.9317233925811268        0.6000759753041246    
    0.9429489756242728        0.6009532312497239    
    0.9541745586674190        0.6016809408837045    
    0.9654001417105651        0.6022599355198234    
    0.9766257247537112        0.6026910614378579    
    0.9878513077968573        0.6029751828056887    
    0.9990768908400034        0.6031131882967802    
     1.010302473883149        0.6031060011781506    
     1.021528056926296        0.6029545925662387    
     1.032753639969442        0.6026599974782804    
     1.043979223012588        0.6022233332456759    
     1.055204806055734        0.6016458198048659    
     1.066430389098880        0.6009288013416029    
     1.077655972142026        0.6000737687369456    
     1.088881555185172        0.5990823822479922    
     1.100107138228318        0.5979564938540524    
     1.111332721271465        0.5966981687091464    
     1.122558304314611        0.5953097051640577    
     1.133783887357757        0.5937936528557111    
     1.145009470400903        0.5921528284058024    
     1.156235053444049        0.5903903283258907    
     1.167460636487195        0.5885095387878004    
     1.178686219530341        0.5865141423038992    
     1.189911802573487        0.5844081188522371    
     1.201137385616633        0.5821957461892916    
     1.212362968659779        0.5798816079612567    
     1.223588551702925        0.5774704824157004    
     1.234814134746072        0.5749671296530101    
     1.246039717789218        0.5723761426351153    
     1.257265300832364        0.5697019511488277    
     1.268490883875510        0.5669488141593653    
     1.279716466918656        0.5641208492380024    
     1.290942049961802        0.5612220279208218    
     1.302167633004948        0.5582561811231131    
     1.313393216048094        0.5552270038429472    
     1.324618799091240        0.5521380598000589    
     1.335844382134387        0.5489927858870045    
     1.347069965177533        0.5457944964333385    
     1.358295548220679        0.5425463873080303    
     1.369521131263825        0.5392515398638957    
     1.380746714306971        0.5359129247334744    
     1.391972297350117        0.5325334054841500    
     1.403197880393263        0.5291157421399189    
     1.414423463436409        0.5256625945767263    
     1.425649046479555        0.5221765257977549    
     1.436874629522702        0.5186600050945891    
     1.448100212565848        0.5151154110997853    
     1.459325795608994        0.5115450347359392    
     1.470551378652140        0.5079510820659177    
     1.481776961695286        0.5043356770486787    
     1.493002544738432        0.5007008642046994    
     1.504228127781578        0.4970486111946957    
     1.515453710824724        0.4933808113152681    
     1.526679293867870        0.4896992859146725    
     1.537904876911016        0.4860057867317222    
     1.549130459954163        0.4823019981607209    
     1.560356042997309        0.4785895394450232    
     1.571581626040455        0.4748699668019093    
     1.582807209083601        0.4711447754810211    
     1.594032792126747        0.4674154017584947    
     1.605258375169893        0.4636832248692658    
     1.616483958213039        0.4599495688792474    
     1.627709541256185        0.4562157044994611    
     1.638935124299331        0.4524828508439835    
     1.650160707342478        0.4487521771333297    
     1.661386290385624        0.4450248043452087    
     1.672611873428770        0.4413018068139976    
     1.683837456471916        0.4375842137807813    
     1.695063039515062        0.4338730108952413    
     1.706288622558208        0.4301691416709159    
     1.717514205601354        0.4264735088952932    
     1.728739788644500        0.4227869759960124    
     1.739965371687646        0.4191103683645758    
     1.751190954730792        0.4154444746387312    
     1.762416537773938        0.4117900479448620    
     1.773642120817085        0.4081478071014931    
     1.784867703860231        0.4045184377851141    
     1.796093286903377        0.4009025936594331    
     1.807318869946523        0.3973008974691883    
     1.818544452989669        0.3937139420995197    
     1.829770036032815        0.3901422916019259    
     1.840995619075961        0.3865864821878390    
     1.852221202119107        0.3830470231908198    
     1.863446785162254        0.3795243979982189    
     1.874672368205400        0.3760190649533091    
     1.885897951248546        0.3725314582286918    
     1.897123534291692        0.3690619886719634    
     1.908349117334838        0.3656110446243280    
     1.919574700377984        0.3621789927131544    
     1.930800283421130        0.3587661786190638    
     1.942025866464276        0.3553729278185037    
     1.953251449507422        0.3519995463024109    
     1.964477032550568        0.3486463212718173    
     1.975702615593715        0.3453135218110127    
     1.986928198636861        0.3420013995389704    
     1.998153781680007        0.3387101892397640    
     2.009379364723153        0.3354401094724738    
     2.020604947766299        0.3321913631614603    
     2.031830530809445        0.3289641381672531    
     2.043056113852591        0.3257586078391239    
     2.054281696895737        0.3225749315493442    
     2.065507279938883        0.3194132552103513    
     2.076732862982030        0.3162737117746299    
     2.087958446025175        0.3131564217185553    
     2.099184029068322        0.3100614935100977    
     2.110409612111468        0.3069890240613594    
     2.121635195154614        0.3039390991660997    
     2.132860778197760        0.3009117939228669    
     2.144086361240906        0.2979071731441960    
     2.155311944284052        0.2949252917521906    
     2.166537527327198        0.2919661951611151    
     2.177763110370345        0.2890299196471814    
     2.188988693413491        0.2861164927061454    
     2.200214276456637        0.2832259333989385    
     2.211439859499783        0.2803582526857966    
     2.222665442542929        0.2775134537492411    
     2.233891025586075        0.2746915323062613    
     2.245116608629221        0.2718924769100157    
     2.256342191672367        0.2691162692414708    
     2.267567774715513        0.2663628843911455    
     2.278793357758659        0.2636322911314838    
     2.290018940801806        0.2609244521799735    
     2.301244523844951        0.2582393244533900    
     2.312470106888098        0.2555768593135193    
     2.323695689931244        0.2529370028043952    
     2.334921272974390        0.2503196958816989    
     2.346146856017536        0.2477248746341966    
     2.357372439060682        0.2451524704977110    
     2.368598022103828        0.2426024104618522    
     2.379823605146974        0.2400746172695233    
     2.391049188190121        0.2375690096098313    
     2.402274771233266        0.2350855023042149    
     2.413500354276413        0.2326240064862503    
     2.424725937319559        0.2301844297753351    
     2.435951520362705        0.2277666764442453    
     2.447177103405851        0.2253706475810930    
     2.458402686448997        0.2229962412455758    
     2.469628269492143        0.2206433526198337    
     2.480853852535289        0.2183118741541616    
     2.492079435578435        0.2160016957075620    
     2.503305018621582        0.2137127046834807    
     2.514530601664728        0.2114447861607936    
     2.525756184707874        0.2091978230201767    
     2.536981767751020        0.2069716960661494    
     2.548207350794166        0.2047662841447868    
     2.559432933837312        0.2025814642573124    
     2.570658516880458        0.2004171116697093    
     2.581884099923604        0.1982731000184569    
     2.593109682966750        0.1961493014125436    
     2.604335266009897        0.1940455865318694    
     2.615560849053042        0.1919618247221679    
     2.626786432096189        0.1898978840865437    
     2.638012015139335        0.1878536315737620    
     2.649237598182481        0.1858289330633950    
     2.660463181225627        0.1838236534478949    
     2.671688764268773        0.1818376567117512    
     2.682914347311919        0.1798708060077904    
     2.694139930355065        0.1779229637307179    
     2.705365513398212        0.1759939915880164    
     2.716591096441357        0.1740837506682642    
     2.727816679484504        0.1721921015069571    
     2.739042262527650        0.1703189041499514    
     2.750267845570796        0.1684640182145633    
     2.761493428613942        0.1666273029484265    
     2.772719011657088        0.1648086172861872    
     2.783944594700234        0.1630078199040875    
     2.795170177743380        0.1612247692725258    
     2.806395760786526        0.1594593237066465    
     2.817621343829673        0.1577113414150417    
     2.828846926872818        0.1559806805466077    
     2.840072509915965        0.1542671992356266    
     2.851298092959111        0.1525707556451347    
     2.862523676002257        0.1508912080086307    
     2.873749259045403        0.1492284146701595    
     2.884974842088549        0.1475822341228675    
     2.896200425131695        0.1459525250460410    
     2.907426008174841        0.1443391463406793    
     2.918651591217988        0.1427419571636798    
     2.929877174261133        0.1411608169606540    
     2.941102757304280        0.1395955854974108    
     2.952328340347426        0.1380461228901846    
     2.963553923390572        0.1365122896346217    
     2.974779506433718        0.1349939466335617    
     2.986005089476864        0.1334909552236743    
     2.997230672520010        0.1320031772009742    
     3.008456255563156        0.1305304748452452    
     3.019681838606302        0.1290727109434200    
     3.030907421649449        0.1276297488119451    
     3.042133004692595        0.1262014523181603    
     3.053358587735741        0.1247876859007229    
     3.064584170778887        0.1233883145891023    
     3.075809753822033        0.1220032040221807    
     3.087035336865179        0.1206322204659937    
     3.098260919908325        0.1192752308306821    
     3.109486502951471        0.1179321026866424    
     3.120712085994617        0.1166027042796745    
     3.131937669037764        0.1152869045455716    
     3.143163252080909        0.1139845731239258    
     3.154388835124056        0.1126955803713246    
     3.165614418167202        0.1114197973737411    
     3.176840001210348        0.1101570959579532    
     3.188065584253494        0.1089073487021704    
     3.199291167296640        0.1076704289482420    
     3.210516750339786        0.1064462108101716    
     3.221742333382932        0.1052345691862203    
     3.232967916426079        0.1040353797606661    
     3.244193499469224        0.1028485190169046    
     3.255419082512371        0.1016738642457448    
     3.266644665555517        0.1005112935511831    
     3.277870248598663        0.9936068585662253E-01
     3.289095831641809        0.9822192091106278E-01
     3.300321414684955        0.9709487929477072E-01
     3.311546997728101        0.9597944242454456E-01
     3.322772580771247        0.9487549255841202E-01
     3.333998163814393        0.9378291279987590E-01
     3.345223746857540        0.9270158710176538E-01
     3.356449329900685        0.9163140026968862E-01
     3.367674912943832        0.9057223796510576E-01
     3.378900495986978        0.8952398670802446E-01
     3.390126079030124        0.8848653387933456E-01
     3.401351662073270        0.8745976772278675E-01
     3.412577245116416        0.8644357734663236E-01
     3.423802828159562        0.8543785272493469E-01
     3.435028411202708        0.8444248469856883E-01
     3.446253994245855        0.8345736497590528E-01
     3.457479577289000        0.8248238613320305E-01
     3.468705160332147        0.8151744161471587E-01
     3.479930743375293        0.8056242573252401E-01
     3.491156326418439        0.7961723366609409E-01
     3.502381909461585        0.7868176146158511E-01
     3.513607492504731        0.7775590603090977E-01
     3.524833075547877        0.7683956515054967E-01
     3.536058658591023        0.7593263746014284E-01
     3.547284241634169        0.7503502246084871E-01
     3.558509824677315        0.7414662051350278E-01
     3.569735407720461        0.7326733283655862E-01
     3.580960990763608        0.7239706150383420E-01
     3.592186573806754        0.7153570944206815E-01
     3.603412156849900        0.7068318042829490E-01
     3.614637739893046        0.6983937908703718E-01
     3.625863322936192        0.6900421088733316E-01
     3.637088905979338        0.6817758213960111E-01
     3.648314489022484        0.6735939999234840E-01
     3.659540072065631        0.6654957242872794E-01
     3.670765655108776        0.6574800826295367E-01
     3.681991238151923        0.6495461713657912E-01
     3.693216821195069        0.6416930951464432E-01
     3.704442404238215        0.6339199668169587E-01
     3.715667987281361        0.6262259073768769E-01
     3.726893570324507        0.6186100459376948E-01
     3.738119153367653        0.6110715196796360E-01
     3.749344736410799        0.6036094738073800E-01
     3.760570319453945        0.5962230615048125E-01
     3.771795902497091        0.5889114438888339E-01
     3.783021485540238        0.5816737899622709E-01
     3.794247068583384        0.5745092765659422E-01
     3.805472651626530        0.5674170883299180E-01
     3.816698234669676        0.5603964176240305E-01
     3.827923817712822        0.5534464645076619E-01
     3.839149400755968        0.5465664366788569E-01
     3.850374983799114        0.5397555494228053E-01
     3.861600566842260        0.5330130255597197E-01
     3.872826149885406        0.5263380953921638E-01
     3.884051732928552        0.5197299966518582E-01
     3.895277315971699        0.5131879744459920E-01
     3.906502899014845        0.5067112812030846E-01
     3.917728482057991        0.5002991766184340E-01
     3.928954065101137        0.4939509275991748E-01
     3.940179648144283        0.4876658082089882E-01
     3.951405231187429        0.4814430996124752E-01
     3.962630814230575        0.4752820900192323E-01
     3.973856397273722        0.4691820746276841E-01
     3.985081980316867        0.4631423555686586E-01
     3.996307563360014        0.4571622418487570E-01
     4.007533146403159        0.4512410492935066E-01
     4.018758729446306        0.4453781004904085E-01
     4.029984312489452        0.4395727247318094E-01
     4.041209895532598        0.4338242579576824E-01
     4.052435478575744        0.4281320426982585E-01
     4.063661061618890        0.4224954280166703E-01
     4.074886644662036        0.4169137694515053E-01
     4.086112227705183        0.4113864289593358E-01
     4.097337810748328        0.4059127748572212E-01
     4.108563393791474        0.4004921817652441E-01
     4.119788976834621        0.3951240305490770E-01
     4.131014559877767        0.3898077082625965E-01
     4.142240142920913        0.3845426080905406E-01
     4.153465725964059        0.3793281292912183E-01
     4.164691309007205        0.3741636771394065E-01
     4.175916892050351        0.3690486628692839E-01
     4.187142475093498        0.3639825036175236E-01
     4.198368058136643        0.3589646223664610E-01
     4.209593641179789        0.3539944478874884E-01
     4.220819224222936        0.3490714146845866E-01
     4.232044807266082        0.3441949629380263E-01
     4.243270390309227        0.3393645384482531E-01
     4.254495973352374        0.3345795925799375E-01
     4.265721556395520        0.3298395822063449E-01
     4.276947139438666        0.3251439696538388E-01
     4.288172722481812        0.3204922226466627E-01
     4.299398305524958        0.3158838142518713E-01
     4.310623888568104        0.3113182228246165E-01
     4.321849471611251        0.3067949319536433E-01
     4.333075054654397        0.3023134304070516E-01
     4.344300637697543        0.2978732120783224E-01
     4.355526220740689        0.2934737759325743E-01
     4.366751803783835        0.2891146259532416E-01
     4.377977386826982        0.2847952710889395E-01
     4.389202969870127        0.2805152252006839E-01
     4.400428552913273        0.2762740070093386E-01
     4.411654135956420        0.2720711400434378E-01
     4.422879718999566        0.2679061525873410E-01
     4.434105302042711        0.2637785776296618E-01
     4.445330885085858        0.2596879528120657E-01
     4.456556468129004        0.2556338203782690E-01
     4.467782051172150        0.2516157271235626E-01
     4.479007634215296        0.2476332243445571E-01
     4.490233217258442        0.2436858677892957E-01
     4.501458800301588        0.2397732176077161E-01
     4.512684383344735        0.2358948383023643E-01
     4.523909966387881        0.2320502986796353E-01
     4.535135549431026        0.2282391718012366E-01
     4.546361132474173        0.2244610349360540E-01
     4.557586715517319        0.2207154695123350E-01
     4.568812298560465        0.2170020610702101E-01
     4.580037881603611        0.2133203992146826E-01
     4.591263464646757        0.2096700775688778E-01
     4.602489047689903        0.2060506937277035E-01
     4.613714630733050        0.2024618492118074E-01
     4.624940213776195        0.1989031494219361E-01
     4.636165796819341        0.1953742035937046E-01
     4.647391379862488        0.1918746247526626E-01
     4.658616962905634        0.1884040296697716E-01
     4.669842545948780        0.1849620388171584E-01
     4.681068128991926        0.1815482763243164E-01
     4.692293712035072        0.1781623699346715E-01
     4.703519295078218        0.1748039509624699E-01
     4.714744878121365        0.1714726542500698E-01
     4.725970461164510        0.1681681181255023E-01
     4.737196044207656        0.1648899843604891E-01
     4.748421627250803        0.1616378981288113E-01
     4.759647210293949        0.1584115079650016E-01
     4.770872793337094        0.1552104657234281E-01
     4.782098376380241        0.1520344265376610E-01
     4.793323959423387        0.1488830487802686E-01
     4.804549542466533        0.1457559940229689E-01
     4.815775125509679        0.1426529269970990E-01
     4.827000708552825        0.1395735155544666E-01
     4.838226291595971        0.1365174306284871E-01
     4.849451874639118        0.1334843461957163E-01
     4.860677457682264        0.1304739392377581E-01
     4.871903040725409        0.1274858897034696E-01
     4.883128623768556        0.1245198804715250E-01
     4.894354206811702        0.1215755973133051E-01
     4.905579789854849        0.1186527288561016E-01
     4.916805372897994        0.1157509665467402E-01
     4.928030955941140        0.1128700046154691E-01
     4.939256538984287        0.1100095400401959E-01
     4.950482122027433        0.1071692725110681E-01
     4.961707705070578        0.1043489043952943E-01
     4.972933288113725        0.1015481407024311E-01
     4.984158871156871        0.9876668904990366E-02
     4.995384454200017        0.9600425962885227E-02
     5.006610037243163        0.9326056517033283E-02
     5.017835620286309        0.9053532091173206E-02
     5.029061203329455        0.8782824456362564E-02
     5.040286786372602        0.8513905627686967E-02
     5.051512369415748        0.8246747861001586E-02
     5.062737952458893        0.7981323649703468E-02
     5.073963535502040        0.7717605721531414E-02
     5.085189118545186        0.7455567036980852E-02
     5.096414701588332        0.7195180876063740E-02
     5.107640284631478        0.6936421928235538E-02
     5.118865867674624        0.6679271085650831E-02
     5.130091450717770        0.6423725897588860E-02
     5.141317033760917        0.6169814612329412E-02
     5.152542616804062        0.5917609396725003E-02
     5.163768199847208        0.5667235317909847E-02
     5.174993782890355        0.5418873844285615E-02
     5.186219365933501        0.5172761275306233E-02
     5.197444948976647        0.4929183288135844E-02
     5.208670532019793        0.4688466942551181E-02
     5.219896115062939        0.4450971323999282E-02
     5.231121698106085        0.4217077737028278E-02
     5.242347281149232        0.3987180094273359E-02
     5.253572864192377        0.3761675922339803E-02
     5.264798447235523        0.3540958234680514E-02
     5.276024030278670        0.3325408398115829E-02
     5.287249613321816        0.3115390034597308E-02
     5.298475196364961        0.2911243943747659E-02
     5.309700779408108        0.2713283996500632E-02
     5.320926362451254        0.2521793929579529E-02
     5.332151945494400        0.2337024959931371E-02
     5.343377528537546        0.2159194134240462E-02
     5.354603111580692        0.1988483328919289E-02
     5.365828694623838        0.1825038818912237E-02
     5.377054277666985        0.1668971338109722E-02
     5.388279860710131        0.1520356559413083E-02
     5.399505443753276        0.1379235927998239E-02
     5.410731026796423        0.1245617786724845E-02
     5.421956609839569        0.1119478737673903E-02
     5.433182192882715        0.1000765188229987E-02
     5.444407775925861        0.8893950337050131E-03
     5.455633358969007        0.7852594308899982E-03
     5.466858942012154        0.6882246175918759E-03
     5.478084525055300        0.5981337312301047E-03
     5.489310108098445        0.5148085732693924E-03
     5.500535691141592        0.4380512524191509E-03
     5.511761274184738        0.3676456116850208E-03
     5.522986857227884        0.3033582887700028E-03
     5.534212440271030        0.2449391447112192E-03
     5.545438023314176        0.1921205444842329E-03
     5.556663606357322        0.1446143719074259E-03
     5.567889189400469        0.1021040312719816E-03
     5.579114772443615        0.6422340890905156E-04
     5.590340355486760        0.3049209143493754E-04
     5.601565938529907         0.000000000000000    
  0  2  2  0  0.000000   #orbital l, n, z, is_polarized, population
 500    0.7586276242740720E-02     3.785551845127619     # npts, delta, cutoff
     0.000000000000000        0.1973465194282121    
    0.7586276242740720E-02    0.1974352252541988    
    0.1517255248548144E-01    0.1977088281173676    
    0.2275882872822216E-01    0.1981644881718825    
    0.3034510497096288E-01    0.1988016857753193    
    0.3793138121370360E-01    0.1996196976334181    
    0.4551765745644432E-01    0.2006175994119184    
    0.5310393369918504E-01    0.2017942696829405    
    0.6069020994192576E-01    0.2031483947527722    
    0.6827648618466649E-01    0.2046784742820712    
    0.7586276242740721E-01    0.2063828276398795    
    0.8344903867014793E-01    0.2082596009333755    
    0.9103531491288865E-01    0.2103067746513220    
    0.9862159115562937E-01    0.2125221718546181    
    0.1062078673983701        0.2149034668431609    
    0.1137941436411108        0.2174481942246181    
    0.1213804198838515        0.2201537583077883    
    0.1289666961265923        0.2230174427410746    
    0.1365529723693330        0.2260364203152131    
    0.1441392486120737        0.2292077628488339    
    0.1517255248548144        0.2325284510756295    
    0.1593118010975551        0.2359953844529704    