<preamble>

<basis_specs>
===============================================================================
Br                   Z=  35    Mass=  79.904        Charge= 0.17977+309
Lmxo=2 Lmxkb= 2    BasisType=split      Semic=F
L=0  Nsemic=0  Cnfigmx=4
          i=1  nzeta=2  polorb=0  (4s)
            splnorm:   0.15000    
               vcte:    40.000    
               rinn:    4.0848    
               qcoe:    0.0000    
               qyuk:    0.0000    
               qwid:   0.10000E-01
                rcs:    4.5386      3.0482    
            lambdas:    1.0000      1.0000    
L=1  Nsemic=0  Cnfigmx=4
          i=1  nzeta=2  polorb=1  (4p)  (to be polarized perturbatively)
            splnorm:   0.15000    
               vcte:    40.000    
               rinn:    5.2161    
               qcoe:    0.0000    
               qyuk:    0.0000    
               qwid:   0.10000E-01
                rcs:    5.7956      3.9405    
            lambdas:    1.0000      1.0000    
L=2  Nsemic=0  Cnfigmx=4
          i=1  nzeta=0  polorb=0  (4d)  (perturbative polarization orbital) (from 4p)
-------------------------------------------------------------------------------
L=0  Nkbl=1  erefs: 0.17977+309
L=1  Nkbl=1  erefs: 0.17977+309
L=2  Nkbl=1  erefs: 0.17977+309
===============================================================================
</basis_specs>

<pseudopotential_header>
 Br pb nrl pcec
 ONCVPSP-3.2017-10-31Hamann's oncvpsp                        
 4s 2.00  r= 1.81/4p 5.00  r= 1.51/4d 0.00  r= 1.92/                    4s:4p:
</pseudopotential_header>
</preamble>
Br                            # Symbol
Br                            # Label
   35                         # Atomic number
     7.00000000000                             # Valence charge
     79.9040000000        # Mass 
     51.2539543282        # Self energy 
   2   5                      # Lmax for basis, no. of nl orbitals 
   2   6                      # Lmax for projectors, no. of nl KB projectors
# PAOs:__________________________
  0  4  1  0  2.000000   #orbital l, n, z, is_polarized, population
 500    0.9095484859709920E-02     4.538646944995250     # npts, delta, cutoff
     0.000000000000000        0.6678157234416868E-01
    0.9095484859709920E-02    0.6689838510083684E-01
    0.1819096971941984E-01    0.6725104544378309E-01
    0.2728645457912976E-01    0.6783844137966069E-01
    0.3638193943883968E-01    0.6866001567650158E-01
    0.4547742429854960E-01    0.6971499003781505E-01
    0.5457290915825952E-01    0.7100236652075272E-01
    0.6366839401796945E-01    0.7252092950798536E-01
    0.7276387887767936E-01    0.7426924811542246E-01
    0.8185936373738928E-01    0.7624567901090248E-01
    0.9095484859709921E-01    0.7844836962644391E-01
    0.1000503334568091        0.8087526174643722E-01
    0.1091458183165190        0.8352409545281338E-01
    0.1182413031762290        0.8639241340672280E-01
    0.1273367880359389        0.8947756544485640E-01
    0.1364322728956488        0.9277671346727041E-01
    0.1455277577553587        0.9628683659249684E-01
    0.1546232426150687        0.1000047365548146    
    0.1637187274747786        0.1039270433178628    
    0.1728142123344885        0.1080502208782769    
    0.1819096971941984        0.1123705732327356    
    0.1910051820539083        0.1168842504817249    
    0.2001006669136182        0.1215872550434432    
    0.2091961517733282        0.1264754479516070    
    0.2182916366330381        0.1315445552114361    
    0.2273871214927480        0.1367901741888282    
    0.2364826063524579        0.1422077800086325    
    0.2455780912121679        0.1477927319390253    
    0.2546735760718778        0.1535402797402290    
    0.2637690609315877        0.1594455699572231    
    0.2728645457912976        0.1655036521376244    
    0.2819600306510076        0.1717094849575818    
    0.2910555155107175        0.1780579422402826    
    0.3001510003704274        0.1845438188535216    
    0.3092464852301373        0.1911618364746979    
    0.3183419700898472        0.1979066492135755    
    0.3274374549495571        0.2047728490851341    
    0.3365329398092671        0.2117549713268473    
    0.3456284246689770        0.2188474995567225    
    0.3547239095286869        0.2260448707704107    
    0.3638193943883968        0.2333414801776140    
    0.3729148792481067        0.2407316858798800    
    0.3820103641078166        0.2482098133936508    
    0.3911058489675266        0.2557701600241039    
    0.4002013338272365        0.2634069990969030    
    0.4092968186869464        0.2711145840563917    
    0.4183923035466564        0.2788871524400579    
    0.4274877884063663        0.2867189297402606    
    0.4365832732660762        0.2946041331651468    
    0.4456787581257861        0.3025369753115179    
    0.4547742429854960        0.3105116677630339    
    0.4638697278452060        0.3185224246275431    
    0.4729652127049159        0.3265634660276524    
    0.4820606975646258        0.3346290215586563    
    0.4911561824243357        0.3427133337278376    
    0.5002516672840456        0.3508106613889032    
    0.5093471521437556        0.3589152831847527    
    0.5184426370034655        0.3670215010111765    
    0.5275381218631754        0.3751236435132774    
    0.5366336067228853        0.3832160696253183    
    0.5457290915825952        0.3912931721637622    
    0.5548245764423051        0.3993493814817909    
    0.5639200613020151        0.4073791691924380    
    0.5730155461617250        0.4153770519657762    
    0.5821110310214349        0.4233375954041996    
    0.5912065158811448        0.4312554179981144    
    0.6003020007408547        0.4391251951626312    
    0.6093974856005647        0.4469416633541972    
    0.6184929704602746        0.4546996242643068    
    0.6275884553199845        0.4623939490856275    
    0.6366839401796944        0.4700195828442580    
    0.6457794250394043        0.4775715487900126    
    0.6548749098991142        0.4850449528350595    
    0.6639703947588242        0.4924349880296403    
    0.6730658796185341        0.4997369390620881    
    0.6821613644782440        0.5069461867690189    
    0.6912568493379539        0.5140582126402647    
    0.7003523341976639        0.5210686033020170    
    0.7094478190573738        0.5279730549606140    
    0.7185433039170838        0.5347673777886243    
    0.7276387887767937        0.5414475002341528    
    0.7367342736365036        0.5480094732338203    
    0.7458297584962135        0.5544494743095633    
    0.7549252433559234        0.5607638115292073    
    0.7640207282156333        0.5669489273108572    
    0.7731162130753433        0.5730014020513721    
    0.7822116979350532        0.5789179575595625    
    0.7913071827947631        0.5846954602754154    
    0.8004026676544730        0.5903309242573503    
    0.8094981525141829        0.5958215139205140    
    0.8185936373738928        0.6011645465101780    
    0.8276891222336028        0.6063574942956219    
    0.8367846070933127        0.6113979864712195    
    0.8458800919530226        0.6162838107530338    
    0.8549755768127325        0.6210129146608564    
    0.8640710616724424        0.6255834064773779    
    0.8731665465321523        0.6299935558780249    
    0.8822620313918623        0.6342417942268959    
    0.8913575162515722        0.6383267145362038    
    0.9004530011112821        0.6422470710886420    
    0.9095484859709920        0.6460017787240689    
    0.9186439708307019        0.6495899117939603    
    0.9277394556904119        0.6530107027890647    
    0.9368349405501218        0.6562635406476680    
    0.9459304254098317        0.6593479687537128    
    0.9550259102695416        0.6622636826359967    
    0.9641213951292515        0.6650105273812554    
    0.9732168799889614        0.6675884947757009    
    0.9823123648486715        0.6699977201910770    
    0.9914078497083814        0.6722384792326580    
     1.000503334568091        0.6743111841679147    
     1.009598819427801        0.6762163801556555    
     1.018694304287511        0.6779547412963817    
     1.027789789147221        0.6795270665253704    
     1.036885274006931        0.6809342753705637    
     1.045980758866641        0.6821774035977664    
     1.055076243726351        0.6832575987658775    
     1.064171728586061        0.6841761157149093    
     1.073267213445771        0.6849343120094223    
     1.082362698305481        0.6855336433595414    
     1.091458183165190        0.6859756590413733    
     1.100553668024900        0.6862619973380286    
     1.109649152884610        0.6863943810211695    
     1.118744637744320        0.6863746128924656    
     1.127840122604030        0.6862045714030364    
     1.136935607463740        0.6858862063675654    
     1.146031092323450        0.6854215347883972    
     1.155126577183160        0.6848126368033911    
     1.164222062042870        0.6840616517699522    
     1.173317546902580        0.6831707744955270    
     1.182413031762290        0.6821422516232811    
     1.191508516622000        0.6809783781800591    
     1.200604001481709        0.6796814942916347    
     1.209699486341419        0.6782539820685205    
     1.218794971201129        0.6766982626638132    
     1.227890456060839        0.6750167935026343    
     1.236985940920549        0.6732120656810875    
     1.246081425780259        0.6712866015308685    
     1.255176910639969        0.6692429523439423    
     1.264272395499679        0.6670836962503915    
     1.273367880359389        0.6648114362408439    
     1.282463365219099        0.6624287990179143    
     1.291558850078809        0.6599384322819914    
     1.300654334938519        0.6573430019186386    
     1.309749819798228        0.6546451931098349    
     1.318845304657938        0.6518477077965292    
     1.327940789517648        0.6489532633257892    
     1.337036274377358        0.6459645911535118    
     1.346131759237068        0.6428844355878793    
     1.355227244096778        0.6397155525583362    
     1.364322728956488        0.6364607083951103    
     1.373418213816198        0.6331226786044890    
     1.382513698675908        0.6297042466253177    
     1.391609183535618        0.6262082025530152    
     1.400704668395328        0.6226373418178317    
     1.409800153255038        0.6189944638054957    
     1.418895638114748        0.6152823704084217    
     1.427991122974458        0.6115038644981223    
     1.437086607834168        0.6076617483093136    
     1.446182092693877        0.6037588217287634    
     1.455277577553587        0.5997978804812995    
     1.464373062413297        0.5957817142164324    
     1.473468547273007        0.5917131044701984    
     1.482564032132717        0.5875948225355343    
     1.491659516992427        0.5834296272138548    
     1.500755001852137        0.5792202624066201    
     1.509850486711847        0.5749694547642080    
     1.518945971571557        0.5706799110488425    
     1.528041456431267        0.5663543155033136    
     1.537136941290977        0.5619953272454278    
     1.546232426150687        0.5576055771779728    
     1.555327911010396        0.5531876652113927    
     1.564423395870106        0.5487441574580866    
     1.573518880729816        0.5442775831138645    
     1.582614365589526        0.5397904316026085    
     1.591709850449236        0.5352851496159488    
     1.600805335308946        0.5307641379814252    
     1.609900820168656        0.5262297487357296    
     1.618996305028366        0.5216842822736527    
     1.628091789888076        0.5171299844729301    
     1.637187274747786        0.5125690438986966    
     1.646282759607496        0.5080035891332616    
     1.655378244467206        0.5034356862146252    
     1.664473729326915        0.4988673362009367    
     1.673569214186625        0.4943004728850661    
     1.682664699046335        0.4897369606738991    
     1.691760183906045        0.4851785926472566    
     1.700855668765755        0.4806270888105806    
     1.709951153625465        0.4760840945551765    
     1.719046638485175        0.4715511793377074    
     1.728142123344885        0.4670298355899623    
     1.737237608204595        0.4625214778683846    
     1.746333093064305        0.4580274422503264    
     1.755428577924015        0.4535489859385310    
     1.764524062783725        0.4490872871190061    
     1.773619547643434        0.4446434455331367    
     1.782715032503144        0.4402184833584169    
     1.791810517362854        0.4358133443085127    
     1.800906002222564        0.4314288928217238    
     1.810001487082274        0.4270659178408927    
     1.819096971941984        0.4227251423404091    
     1.828192456801694        0.4184072343857439    
     1.837287941661404        0.4141128184104010    
     1.846383426521114        0.4098424850105777    
     1.855478911380824        0.4055967950093158    
     1.864574396240534        0.4013762787507708    
     1.873669881100244        0.3971814351619584    
     1.882765365959953        0.3930127331633395    
     1.891860850819663        0.3888706131264912    
     1.900956335679373        0.3847554879409017    
     1.910051820539083        0.3806677438733484    
     1.919147305398793        0.3766077415009093    
     1.928242790258503        0.3725758165833553    
     1.937338275118213        0.3685722809389368    
     1.946433759977923        0.3645974232983605    
     1.955529244837633        0.3606515101265658    
     1.964624729697343        0.3567347864202381    
     1.973720214557053        0.3528474764817169    
     1.982815699416763        0.3489897846714036    
     1.991911184276473        0.3451618961376297    
     2.001006669136182        0.3413639775247386    
     2.010102153995892        0.3375961776597110    
     2.019197638855602        0.3338586282186500    
     2.028293123715312        0.3301514443728393    
     2.037388608575022        0.3264747254153185    
     2.046484093434732        0.3228285553685957    
     2.055579578294442        0.3192130035734275    
     2.064675063154152        0.3156281252598924    
     2.073770548013862        0.3120739621007749    
     2.082866032873572        0.3085505427476096    
     2.091961517733282        0.3050578833504322    
     2.101057002592992        0.3015959880610118    
     2.110152487452702        0.2981648495203275    
     2.119247972312412        0.2947644493309788    
     2.128343457172122        0.2913947585143307    
     2.137438942031831        0.2880557379533112    
     2.146534426891541        0.2847473388211588    
     2.155629911751251        0.2814695029961258    
     2.164725396610961        0.2782221634631913    
     2.173820881470671        0.2750052447026870    
     2.182916366330381        0.2718186630660920    
     2.192011851190091        0.2686623271399350    
     2.201107336049801        0.2655361380975863    
     2.210202820909511        0.2624399900393768    
     2.219298305769220        0.2593737703217583    
     2.228393790628930        0.2563373598753523    
     2.237489275488640        0.2533306335123597    
     2.246584760348350        0.2503534602238717    
     2.255680245208060        0.2474057034670185    
     2.264775730067770        0.2444872214424226    
     2.273871214927480        0.2415978673623444    
     2.282966699787190        0.2387374897095784    
     2.292062184646900        0.2359059324874804    
     2.301157669506610        0.2331030354614589    
     2.310253154366320        0.2303286343920373    
     2.319348639226030        0.2275825612598271    
     2.328444124085740        0.2248646444826579    
     2.337539608945450        0.2221747091250637    
     2.346635093805160        0.2195125771003698    
     2.355730578664869        0.2168780673656097    
     2.364826063524579        0.2142709961094865    
     2.373921548384289        0.2116911769336203    
     2.383017033243999        0.2091384210271858    
     2.392112518103709        0.2066125373352655    
     2.401208002963419        0.2041133327211058    
     2.410303487823129        0.2016406121223007    
     2.419398972682839        0.1991941787012733    
     2.428494457542549        0.1967738339902758    
     2.437589942402259        0.1943793780307709    
     2.446685427261968        0.1920106095076623    
     2.455780912121678        0.1896673258785800    
     2.464876396981388        0.1873493234980290    
     2.473971881841099        0.1850563977368432    
     2.483067366700808        0.1827883430971650    
     2.492162851560518        0.1805449533228064    
     2.501258336420228        0.1783260215052826    
     2.510353821279938        0.1761313401857721    
     2.519449306139648        0.1739607014530324    
     2.528544790999358        0.1718138970372274    
     2.537640275859068        0.1696907184000865    
     2.546735760718778        0.1675909568215483    
     2.555831245578488        0.1655144034825351    
     2.564926730438198        0.1634608495444597    
     2.574022215297907        0.1614300862255580    
     2.583117700157617        0.1594219048737795    
     2.592213185017327        0.1574360970366354    
     2.601308669877037        0.1554724545281346    
     2.610404154736747        0.1535307694928348    
     2.619499639596457        0.1516108344669113    
     2.628595124456167        0.1497124424366297    
     2.637690609315877        0.1478353868943677    
     2.646786094175587        0.1459794618918035    
     2.655881579035297        0.1441444620908140    
     2.664977063895007        0.1423301828120750    
     2.674072548754717        0.1405364200813258    
     2.683168033614427        0.1387629706733644    
     2.692263518474137        0.1370096321539775    
     2.701359003333847        0.1352762029199476    
     2.710454488193556        0.1335624822368462    
     2.719549973053266        0.1318682702750455    
     2.728645457912976        0.1301933681439099    
     2.737740942772686        0.1285375779241887    
     2.746836427632396        0.1269007026986335    
     2.755931912492106        0.1252825465810097    
     2.765027397351816        0.1236829147435706    
     2.774122882211526        0.1221016134428849    
     2.783218367071236        0.1205384500442349    
     2.792313851930945        0.1189932330445874    
     2.801409336790655        0.1174657720942029    
     2.810504821650365        0.1159558780168676    
     2.819600306510075        0.1144633628288823    
     2.828695791369785        0.1129880397568165    
     2.837791276229495        0.1115297232540722    
     2.846886761089205        0.1100882290162982    
     2.855982245948915        0.1086633739957160    
     2.865077730808625        0.1072549764143712    
     2.874173215668335        0.1058628557763833    
     2.883268700528045        0.1044868328792075    
     2.892364185387755        0.1031267298239538    
     2.901459670247465        0.1017823700247748    
     2.910555155107175        0.1004535782174273    
     2.919650639966885        0.9914018046696493E-01
     2.928746124826594        0.9784200417462643E-01
     2.937841609686304        0.9655887808392874E-01
     2.946937094546014        0.9529063228606725E-01
     2.956032579405724        0.9403709822456506E-01
     2.965128064265434        0.9279810869922539E-01
     2.974223549125144        0.9157349786943370E-01
     2.983319033984854        0.9036310125684843E-01
     2.992414518844564        0.8916675574746599E-01
     3.001510003704274        0.8798429959307982E-01
     3.010605488563983        0.8681557241220693E-01
     3.019700973423693        0.8566041519048365E-01
     3.028796458283403        0.8451867028053647E-01
     3.037891943143114        0.8339018140133621E-01
     3.046987428002824        0.8227479363711165E-01
     3.056082912862533        0.8117235343580644E-01
     3.065178397722243        0.8008270860709668E-01
     3.074273882581953        0.7900570831997798E-01
     3.083369367441663        0.7794120309997805E-01
     3.092464852301373        0.7688904482598674E-01
     3.101560337161083        0.7584908672671735E-01
     3.110655822020793        0.7482118337681393E-01
     3.119751306880503        0.7380519069263981E-01
     3.128846791740213        0.7280096592774715E-01
     3.137942276599923        0.7180836766804083E-01
     3.147037761459632        0.7082725582665457E-01
     3.156133246319342        0.6985749163855323E-01
     3.165228731179052        0.6889893765487563E-01
     3.174324216038762        0.6795145773702430E-01
     3.183419700898472        0.6701491705051996E-01
     3.192515185758182        0.6608918205863222E-01
     3.201610670617892        0.6517412051579155E-01
     3.210706155477602        0.6426960146079903E-01
     3.219801640337312        0.6337549520984297E-01
     3.228897125197022        0.6249167334933825E-01
     3.237992610056732        0.6161800872858057E-01
     3.247088094916442        0.6075437545224262E-01
     3.256183579776152        0.5990064887271268E-01
     3.265279064635862        0.5905670558229519E-01
     3.274374549495571        0.5822242340525820E-01
     3.283470034355281        0.5739768138975928E-01
     3.292565519214991        0.5658235979964764E-01
     3.301661004074701        0.5577634010614970E-01
     3.310756488934411        0.5497950497944661E-01
     3.319851973794121        0.5419173828015133E-01
     3.328947458653831        0.5341292505069029E-01
     3.338042943513541        0.5264295150659622E-01
     3.347138428373251        0.5188170502771586E-01
     3.356233913232961        0.5112907414935004E-01
     3.365329398092670        0.5038494855331708E-01
     3.374424882952380        0.4964921905895691E-01
     3.383520367812090        0.4892177761405281E-01
     3.392615852671800        0.4820251728573324E-01
     3.401711337531510        0.4749133225130347E-01
     3.410806822391220        0.4678811778904091E-01
     3.419902307250930        0.4609277026893212E-01
     3.428997792110640        0.4540518714338630E-01
     3.438093276970350        0.4472526693792906E-01
     3.447188761830060        0.4405290924185246E-01
     3.456284246689770        0.4338801469885308E-01
     3.465379731549480        0.4273048499760762E-01
     3.474475216409190        0.4208022286239892E-01
     3.483570701268900        0.4143713204368844E-01
     3.492666186128609        0.4080111730869162E-01
     3.501761670988319        0.4017208443192701E-01
     3.510857155848029        0.3954994018577107E-01
     3.519952640707739        0.3893459233103681E-01
     3.529048125567449        0.3832594960752783E-01
     3.538143610427159        0.3772392172461572E-01
     3.547239095286869        0.3712841935177764E-01
     3.556334580146579        0.3653935410920973E-01
     3.565430065006289        0.3595663855842100E-01
     3.574525549865999        0.3538018619284272E-01
     3.583621034725708        0.3480991142845895E-01
     3.592716519585418        0.3424572959443116E-01
     3.601812004445129        0.3368755692379236E-01
     3.610907489304839        0.3313531054413099E-01
     3.620002974164549        0.3258890846830999E-01
     3.629098459024258        0.3204826958520219E-01
     3.638193943883968        0.3151331365046087E-01
     3.647289428743678        0.3098396127732946E-01
     3.656384913603388        0.3046013392747159E-01
     3.665480398463098        0.2994175390183811E-01
     3.674575883322808        0.2942874433156521E-01
     3.683671368182518        0.2892102916891333E-01
     3.692766853042228        0.2841853317824056E-01
     3.701862337901938        0.2792118192701576E-01
     3.710957822761648        0.2742890177686573E-01
     3.720053307621357        0.2694161987468159E-01
     3.729148792481067        0.2645926414374164E-01
     3.738244277340777        0.2598176327489036E-01
     3.747339762200487        0.2550904671776057E-01
     3.756435247060197        0.2504104467203115E-01
     3.765530731919907        0.2457768807876630E-01
     3.774626216779617        0.2411890861174568E-01
     3.783721701639327        0.2366463866887638E-01
     3.792817186499037        0.2321481136364479E-01
     3.801912671358747        0.2276936051660940E-01
     3.811008156218457        0.2232822064698527E-01
     3.820103641078167        0.2189132696420865E-01
     3.829199125937877        0.2145861535959559E-01
     3.838294610797587        0.2103002239804276E-01
     3.847390095657296        0.2060548530977051E-01
     3.856485580517006        0.2018494198216304E-01
     3.865581065376716        0.1976833095158584E-01
     3.874676550236426        0.1935559139530388E-01
     3.883772035096136        0.1894666312344191E-01
     3.892867519955846        0.1854148657098894E-01
     3.901963004815556        0.1814000278989779E-01
     3.911058489675266        0.1774215344117472E-01
     3.920153974534976        0.1734788078706147E-01
     3.929249459394686        0.1695712768326482E-01
     3.938344944254395        0.1656983757123500E-01
     3.947440429114105        0.1618595447054637E-01
     3.956535913973815        0.1580542297123987E-01
     3.965631398833525        0.1542818822625139E-01
     3.974726883693235        0.1505419594391862E-01
     3.983822368552945        0.1468339238017175E-01
     3.992917853412655        0.1431572433200649E-01
     4.002013338272365        0.1395113912962025E-01
     4.011108823132075        0.1358958462909209E-01
     4.020204307991785        0.1323100920532846E-01
     4.029299792851495        0.1287536174577543E-01
     4.038395277711205        0.1252259164168310E-01
     4.047490762570915        0.1217264878013734E-01
     4.056586247430625        0.1182548353969226E-01
     4.065681732290335        0.1148104678222290E-01
     4.074777217150045        0.1113928984575012E-01
     4.083872702009755        0.1080016453622095E-01
     4.092968186869464        0.1046362312700368E-01
     4.102063671729174        0.1012961834530003E-01
     4.111159156588884        0.9798103367736852E-02
     4.120254641448594        0.9469031826858725E-02
     4.129350126308304        0.9142358145868739E-02
     4.138445611168014        0.8818040028445027E-02
     4.147541096027724        0.8496046189026031E-02
     4.156636580887434        0.8176369632917700E-02
     4.165732065747144        0.7859042738663797E-02
     4.174827550606853        0.7544149663146184E-02
     4.183923035466563        0.7231833492172377E-02
     4.193018520326273        0.6922297709673965E-02
     4.202114005185983        0.6615802908108350E-02
     4.211209490045693        0.6312660043342086E-02
     4.220304974905403        0.6013221606267627E-02
     4.229400459765113        0.5717871803835466E-02
     4.238495944624823        0.5427016563880878E-02
     4.247591429484533        0.5141073919021653E-02
     4.256686914344243        0.4860465117094085E-02
     4.265782399203952        0.4585606652584530E-02
     4.274877884063662        0.4316903305982479E-02
     4.283973368923372        0.4054742205575463E-02
     4.293068853783082        0.3799487879766647E-02
     4.302164338642792        0.3551478239950292E-02
     4.311259823502502        0.3311021418824365E-02
     4.320355308362212        0.3078393381894885E-02
     4.329450793221922        0.2853836228490264E-02
     4.338546278081632        0.2637557100548681E-02
     4.347641762941342        0.2429727621418673E-02
     4.356737247801052        0.2230483791873493E-02
     4.365832732660762        0.2039926275922920E-02
     4.374928217520472        0.1858121014347627E-02
     4.384023702380182        0.1685100108815194E-02
     4.393119187239892        0.1520862923708767E-02
     4.402214672099602        0.1365377356132287E-02
     4.411310156959312        0.1218581226550415E-02
     4.420405641819022        0.1080383742628391E-02
     4.429501126678732        0.9506669860651692E-03
     4.438596611538441        0.8292873648390330E-03
     4.447692096398151        0.7160769580711542E-03
     4.456787581257861        0.6108446513495145E-03
     4.465883066117571        0.5133769038520232E-03
     4.474978550977281        0.4234378765811491E-03
     4.484074035836991        0.3407684164475045E-03
     4.493169520696701        0.2650828599938512E-03
     4.502265005556411        0.1960612839158206E-03
     4.511360490416121        0.1333309277509973E-03
     4.520455975275831        0.7641693929460300E-04
     4.529551460135540        0.2456308806713518E-04
     4.538646944995250         0.000000000000000    
  0  4  2  0  0.000000   #orbital l, n, z, is_polarized, population
 500    0.6108637498417524E-02     3.048210111710345     # npts, delta, cutoff
     0.000000000000000       -0.3753396405859240    
    0.6108637498417524E-02   -0.3752405848230616    
    0.1221727499683505E-01   -0.3749391019403249    
    0.1832591249525257E-01   -0.3744367703354727    
    0.2443454999367010E-01   -0.3737338026463124    
    0.3054318749208762E-01   -0.3728304955804539    
    0.3665182499050515E-01   -0.3717272300430352    
    0.4276046248892267E-01   -0.3704244708481144    
    0.4886909998734019E-01   -0.3689227663124921    
    0.5497773748575772E-01   -0.3672227477661063    
    0.6108637498417524E-01   -0.3653251289868248    
    0.6719501248259277E-01   -0.3632307055628280    
    0.7330364998101030E-01   -0.3609403541847236    
    0.7941228747942781E-01   -0.3584550318693401    
    0.8552092497784534E-01   -0.3557757751171471    
    0.9162956247626286E-01   -0.3529036990053617    
    0.9773819997468039E-01   -0.3498399962188999    
    0.1038468374730979       -0.3465859360214613    
    0.1099554749715154       -0.3431428631691426    
    0.1160641124699330       -0.3395121967690887    
    0.1221727499683505       -0.3356954290857909    
    0.1282813874667680       -0.3316941242977333    