<preamble>

<basis_specs>
===============================================================================
C                    Z=   6    Mass=  12.011        Charge= 0.17977+309
Lmxo=2 Lmxkb= 1    BasisType=split      Semic=F
L=0  Nsemic=0  Cnfigmx=2
          i=1  nzeta=2  polorb=0  (2s)
            splnorm:   0.15000    
               vcte:    40.000    
               rinn:    4.2947    
               qcoe:    0.0000    
               qyuk:    0.0000    
               qwid:   0.10000E-01
                rcs:    4.7719      3.1288    
            lambdas:    1.0000      1.0000    
L=1  Nsemic=0  Cnfigmx=2
          i=1  nzeta=2  polorb=1  (2p)  (to be polarized perturbatively)
            splnorm:   0.15000    
               vcte:    40.000    
               rinn:    5.2897    
               qcoe:    0.0000    
               qyuk:    0.0000    
               qwid:   0.10000E-01
                rcs:    5.8775      3.8584    
            lambdas:    1.0000      1.0000    
L=2  Nsemic=0  Cnfigmx=3
          i=1  nzeta=0  polorb=0  (3d)  (perturbative polarization orbital) (from 2p)
-------------------------------------------------------------------------------
L=0  Nkbl=1  erefs: 0.17977+309
L=1  Nkbl=1  erefs: 0.17977+309
===============================================================================
</basis_specs>

<pseudopotential_header>
 C  pb nrl pcec
 ONCVPSP-3.2017-10-31Hamann's oncvpsp                        
 2s 2.00  r= 1.20/2p 2.00  r= 1.26/                                     2s:2p:
</pseudopotential_header>
</preamble>
C                             # Symbol
C                             # Label
    6                         # Atomic number
     4.00000000000                             # Valence charge
     12.0110000000        # Mass 
     20.7385047477        # Self energy 
   2   5                      # Lmax for basis, no. of nl orbitals 
   1   4                      # Lmax for projectors, no. of nl KB projectors
# PAOs:__________________________
  0  2  1  0  2.000000   #orbital l, n, z, is_polarized, population
 500    0.9562847817420058E-02     4.771861060892609     # npts, delta, cutoff
     0.000000000000000        0.3676625631664361    
    0.9562847817420058E-02    0.3678523852072157    
    0.1912569563484012E-01    0.3684288265940668    
    0.2868854345226017E-01    0.3693883444670308    
    0.3825139126968023E-01    0.3707291123622539    
    0.4781423908710029E-01    0.3724485807736521    
    0.5737708690452035E-01    0.3745434834693704    
    0.6693993472194040E-01    0.3770098460575108    
    0.7650278253936046E-01    0.3798429964483184    
    0.8606563035678053E-01    0.3830375771379545    
    0.9562847817420059E-01    0.3865875592608488    
    0.1051913259916206        0.3904862583564135    
    0.1147541738090407        0.3947263517910772    
    0.1243170216264608        0.3992998977712173    
    0.1338798694438808        0.4041983558772361    
    0.1434427172613009        0.4094126090439931    
    0.1530055650787209        0.4149329869081105    
    0.1625684128961410        0.4207492904383958    
    0.1721312607135611        0.4268508177617254    
    0.1816941085309811        0.4332263910933120    
    0.1912569563484012        0.4398643846772746    
    0.2008198041658212        0.4467527536409115    
    0.2103826519832413        0.4538790636639828    
    0.2199454998006613        0.4612305213627294    
    0.2295083476180814        0.4687940052872039    
    0.2390711954355015        0.4765560974298044    
    0.2486340432529215        0.4845031151427043    
    0.2581968910703415        0.4926211433620745    
    0.2677597388877616        0.5008960670376706    
    0.2773225867051817        0.5093136036674314    
    0.2868854345226017        0.5178593358382344    
    0.2964482823400218        0.5265187436758175    
    0.3060111301574419        0.5352772371091150    
    0.3155739779748619        0.5441201878568558    
    0.3251368257922820        0.5530329610471435    
    0.3346996736097020        0.5620009463839717    
    0.3442625214271221        0.5710095887780633    
    0.3538253692445422        0.5800444183631330    
    0.3633882170619622        0.5890910798226159    
    0.3729510648793823        0.5981353609559654    
    0.3825139126968023        0.6071632204179316    
    0.3920767605142224        0.6161608145685854    
    0.4016396083316424        0.6251145233763648    
    0.4112024561490625        0.6340109753209838    
    0.4207653039664825        0.6428370712476512    
    0.4303281517839026        0.6515800071286844    
    0.4398909996013227        0.6602272956932556    
    0.4494538474187427        0.6687667868905963    
    0.4590166952361628        0.6771866871565403    
    0.4685795430535828        0.6854755774578332    
    0.4781423908710029        0.6936224300929973    
    0.4877052386884230        0.7016166242328437    
    0.4972680865058430        0.7094479601879964    
    0.5068309343232631        0.7171066723947668    
    0.5163937821406831        0.7245834411146701    
    0.5259566299581032        0.7318694028466848    
    0.5355194777755232        0.7389561594549132    
    0.5450823255929433        0.7458357860178042    
    0.5546451734103633        0.7525008374083204    
    0.5642080212277835        0.7589443536176217    
    0.5737708690452035        0.7651598638377179    
    0.5833337168626236        0.7711413893213295    
    0.5928965646800436        0.7768834450397898    
    0.6024594124974637        0.7823810401623059    
    0.6120222603148837        0.7876296773820999    
    0.6215851081323037        0.7926253511170778    
    0.6311479559497238        0.7973645446147499    
    0.6407108037671438        0.8018442259927369    
    0.6502736515845640        0.8060618432481335    
    0.6598364994019840        0.8100153182703425    
    0.6693993472194041        0.8137030398935605    
    0.6789621950368241        0.8171238560263686    
    0.6885250428542442        0.8202770648970861    
    0.6980878906716642        0.8231624054547175    
    0.7076507384890843        0.8257800469662315    
    0.7172135863065043        0.8281305778520026    
    0.7267764341239245        0.8302149938019484    
    0.7363392819413445        0.8320346852158043    
    0.7459021297587646        0.8335914240116115    
    0.7554649775761846        0.8348873498471475    
    0.7650278253936047        0.8359249557996393    
    0.7745906732110247        0.8367070735496528    
    0.7841535210284447        0.8372368581153512    
    0.7937163688458648        0.8375177721839721    
    0.8032792166632848        0.8375535700874626    
    0.8128420644807050        0.8373482814696687    
    0.8224049122981250        0.8369061946925648    
    0.8319677601155451        0.8362318400292831    
    0.8415306079329651        0.8353299726916387    
    0.8510934557503852        0.8342055557399572    
    0.8606563035678052        0.8328637429229201    
    0.8702191513852253        0.8313098614948761    
    0.8797819992026453        0.8295493950579991    
    0.8893448470200654        0.8275879664761452    
    0.8989076948374854        0.8254313209069153    
    0.9084705426549056        0.8230853089978759    
    0.9180333904723256        0.8205558702921486    
    0.9275962382897456        0.8178490168878862    
    0.9371590861071657        0.8149708173951925    
    0.9467219339245857        0.8119273812329741    
    0.9562847817420058        0.8087248433071920    
    0.9658476295594258        0.8053693491104984    
    0.9754104773768459        0.8018670402819471    
    0.9849733251942659        0.7982240406638655    
    0.9945361730116861        0.7944464428974202    
     1.004099020829106        0.7905402972150490    
     1.013661868646526        0.7865115944822705    
     1.023224716463946        0.7823662587918150    
     1.032787564281366        0.7781101356260217    
     1.042350412098786        0.7737489812970194    
     1.051913259916206        0.7692884533622494    
     1.061476107733627        0.7647341017615424    
     1.071038955551046        0.7600913606928881    
     1.080601803368467        0.7553655412414279    
     1.090164651185887        0.7505618247733078    
     1.099727499003307        0.7456852571030834    
     1.109290346820727        0.7407407434403732    
     1.118853194638147        0.7357330441186580    
     1.128416042455567        0.7306667711060045    
     1.137978890272987        0.7255463852943113    
     1.147541738090407        0.7203761945610309    
     1.157104585907827        0.7151603525939907    
     1.166667433725247        0.7099028584661458    
     1.176230281542667        0.7046075569373794    
     1.185793129360087        0.6992781395428087    
     1.195355977177507        0.6939181462652003    
     1.204918824994927        0.6885309676213821    
     1.214481672812347        0.6831198489460991    
     1.224044520629767        0.6776878971809445    
     1.233607368447188        0.6722380887395843    
     1.243170216264607        0.6667732754168143    
     1.252733064082028        0.6612961882232726    
     1.262295911899448        0.6558094417044221    
     1.271858759716868        0.6503155381638867    
     1.281421607534288        0.6448168717579001    
     1.290984455351708        0.6393157323095398    
     1.300547303169128        0.6338143089493590    
     1.310110150986548        0.6283146939280907    
     1.319672998803968        0.6228188859885466    
     1.329235846621388        0.6173287939357177    
     1.338798694438808        0.6118462397346798    
     1.348361542256228        0.6063729617010167    
     1.357924390073648        0.6009106176005173    
     1.367487237891068        0.5954607875639379    
     1.377050085708488        0.5900249769343971    
     1.386612933525908        0.5846046190201072    
     1.396175781343328        0.5792010777463624    
     1.405738629160749        0.5738156502183305    
     1.415301476978169        0.5684495691958614    
     1.424864324795589        0.5631040054829443    
     1.434427172613009        0.5577800702349778    
     1.443990020430429        0.5524788171863566    
     1.453552868247849        0.5472012448011890    
     1.463115716065269        0.5419482983495959    
     1.472678563882689        0.5367208719121690    
     1.482241411700109        0.5315198103148703    
     1.491804259517529        0.5263459109968162    
     1.501367107334949        0.5211999258130042    
     1.510929955152369        0.5160825627744424    
     1.520492802969789        0.5109944877273973    
     1.530055650787209        0.5059363259743263    
     1.539618498604629        0.5009086638377562    
     1.549181346422049        0.4959120501697889    
     1.558744194239470        0.4909469978083250    
     1.568307042056889        0.4860139849825439    
     1.577869889874310        0.4811134566685636    
     1.587432737691730        0.4762458258977441    
     1.596995585509150        0.4714114750185376    
     1.606558433326570        0.4666107569141115    
     1.616121281143990        0.4618439961765390    
     1.625684128961410        0.4571114902397621    
     1.635246976778830        0.4524135104720458    
     1.644809824596250        0.4477503032299891    
     1.654372672413670        0.4431220908746202    
     1.663935520231090        0.4385290727517334    
     1.673498368048510        0.4339714261367733    
     1.683061215865930        0.4294493071464670    
     1.692624063683350        0.4249628516172535    
     1.702186911500770        0.4205121759528254    
     1.711749759318190        0.4160973779405959    
     1.721312607135610        0.4117185375394301    
     1.730875454953031        0.4073757176383971    
     1.740438302770451        0.4030689647886662    
     1.750001150587871        0.3987983099085060    
     1.759563998405291        0.3945637689630494    
     1.769126846222711        0.3903653436192147    
     1.778689694040131        0.3862030218769075    
     1.788252541857551        0.3820767786772249    
     1.797815389674971        0.3779865764884109    
     1.807378237492391        0.3739323658704650    
     1.816941085309811        0.3699140860190194    
     1.826503933127231        0.3659316652892809    
     1.836066780944651        0.3619850217007089    
     1.845629628762071        0.3580740634230117    
     1.855192476579491        0.3541986892443204    
     1.864755324396911        0.3503587890219314    
     1.874318172214331        0.3465542441163681    
     1.883881020031752        0.3427849278093513    
     1.893443867849171        0.3390507057060188    
     1.903006715666592        0.3353514361224044    
     1.912569563484012        0.3316869704580588    
     1.922132411301432        0.3280571535550061    
     1.931695259118852        0.3244618240429799    
     1.941258106936272        0.3209008146716664    
     1.950820954753692        0.3173739526305221    
     1.960383802571112        0.3138810598561429    
     1.969946650388532        0.3104219533283244    
     1.979509498205952        0.3069964453544988    
     1.989072346023372        0.3036043438434488    
     1.998635193840792        0.3002454525685375    
     2.008198041658212        0.2969195714206047    
     2.017760889475632        0.2936264966513689    
     2.027323737293052        0.2903660211071426    
     2.036886585110472        0.2871379344535932    
     2.046449432927893        0.2839420233917348    
     2.056012280745312        0.2807780718653358    
     2.065575128562732        0.2776458612603346    
     2.075137976380153        0.2745451705962592    
     2.084700824197573        0.2714757767101061    
     2.094263672014993        0.2684374544329132    
     2.103826519832413        0.2654299767592480    
     2.113389367649833        0.2624531150099125    
     2.122952215467253        0.2595066389880876    
     2.132515063284673        0.2565903171291570    
     2.142077911102093        0.2537039166444106    
     2.151640758919513        0.2508472036589248    
     2.161203606736933        0.2480199433437269    
     2.170766454554353        0.2452219000425036    
     2.180329302371773        0.2424528373931196    
     2.189892150189193        0.2397125184439457    
     2.199454998006613        0.2370007057653850    
     2.209017845824033        0.2343171615566828    
     2.218580693641453        0.2316616477481333    
     2.228143541458874        0.2290339260989989    
     2.237706389276294        0.2264337582911601    
     2.247269237093714        0.2238609060186948    
     2.256832084911134        0.2213151310736041    
     2.266394932728554        0.2187961954277060    
     2.275957780545974        0.2163038613109169    
     2.285520628363394        0.2138378912860626    
     2.295083476180814        0.2113980483202786    
     2.304646323998234        0.2089840958531842    
     2.314209171815654        0.2065957978619348    
     2.323772019633074        0.2042329189232527    
     2.333334867450494        0.2018952242725623    
     2.342897715267914        0.1995824798603260    
     2.352460563085334        0.1972944524057095    
     2.362023410902754        0.1950309094476394    
     2.371586258720174        0.1927916193933630    
     2.381149106537594        0.1905763515646412    
     2.390711954355015        0.1883848762415892    
     2.400274802172435        0.1862169647043067    
     2.409837649989855        0.1840723892723908    
     2.419400497807275        0.1819509233423527    
     2.428963345624695        0.1798523414230546    
     2.438526193442115        0.1777764191692728    
     2.448089041259535        0.1757229334133789    
     2.457651889076955        0.1736916621952638    
     2.467214736894375        0.1716823847905872    
     2.476777584711795        0.1696948817373551    
     2.486340432529215        0.1677289348609276    
     2.495903280346635        0.1657843272975356    
     2.505466128164055        0.1638608435163143    
     2.515028975981475        0.1619582693399191    
     2.524591823798895        0.1600763919638769    
     2.534154671616315        0.1582149999746239    
     2.543717519433736        0.1563738833658167    
     2.553280367251156        0.1545528335544051    
     2.562843215068575        0.1527516433943224    
     2.572406062885995        0.1509701071918571    
     2.581968910703416        0.1492080207153955    
     2.591531758520836        0.1474651812079031    
     2.601094606338256        0.1457413873948948    
     2.610657454155676        0.1440364394962882    
     2.620220301973096        0.1423501392349022    
     2.629783149790516        0.1406822898425567    
     2.639345997607936        0.1390326960677671    
     2.648908845425356        0.1374011641805166    
     2.658471693242776        0.1357875019773751    
     2.668034541060196        0.1341915187862691    
     2.677597388877616        0.1326130254700441    
     2.687160236695036        0.1310518344293542    
     2.696723084512457        0.1295077596048335    
     2.706285932329876        0.1279806164787342    
     2.715848780147296        0.1264702220759429    
     2.725411627964716        0.1249763949643974    
     2.734974475782137        0.1234989552549521    
     2.744537323599557        0.1220377246007133    
     2.754100171416977        0.1205925261958700    
     2.763663019234397        0.1191631847740324    
     2.773225867051817        0.1177495266060924    
     2.782788714869237        0.1163513794976348    
     2.792351562686657        0.1149685727859229    
     2.801914410504077        0.1136009373364649    
     2.811477258321497        0.1122483055391903    
     2.821040106138917        0.1109105113042469    
     2.830602953956337        0.1095873900574382    
     2.840165801773757        0.1082787787353146    
     2.849728649591177        0.1069845157799350    
     2.859291497408597        0.1057044411333179    
     2.868854345226017        0.1044383962315866    
     2.878417193043437        0.1031862239988320    
     2.887980040860858        0.1019477688407022    
     2.897542888678278        0.1007228766377322    
     2.907105736495698        0.9951139473842627E-01
     2.916668584313117        0.9831317195210396E-01
     2.926231432130538        0.9712805854152498E-01
     2.935794279947958        0.9595590621530072E-01
     2.945357127765378        0.9479656812010340E-01
     2.954919975582798        0.9364989883268571E-01
     2.964482823400218        0.9251575435171773E-01
     2.974045671217638        0.9139399208945577E-01
     2.983608519035058        0.9028447086324629E-01
     2.993171366852478        0.8918705088687963E-01
     3.002734214669898        0.8810159376179870E-01
     3.012297062487318        0.8702796246817265E-01
     3.021859910304738        0.8596602135584387E-01
     3.031422758122158        0.8491563613515504E-01
     3.040985605939579        0.8387667386766423E-01
     3.050548453756999        0.8284900295675787E-01
     3.060111301574419        0.8183249313816456E-01
     3.069674149391838        0.8082701547037875E-01
     3.079236997209259        0.7983244232500174E-01
     3.088799845026679        0.7884864737700475E-01
     3.098362692844099        0.7787550559492273E-01
     3.107925540661519        0.7691289323097782E-01
     3.117488388478939        0.7596068781114941E-01
     3.127051236296359        0.7501876812518746E-01
     3.136614084113779        0.7408701421657835E-01
     3.146176931931199        0.7316530737246371E-01
     3.155739779748619        0.7225353011352621E-01
     3.165302627566039        0.7135156618383877E-01
     3.174865475383459        0.7045930054068625E-01
     3.184428323200879        0.6957661934435749E-01
     3.193991171018300        0.6870340994792457E-01
     3.203554018835720        0.6783956088700181E-01
     3.213116866653139        0.6698496186949419E-01
     3.222679714470559        0.6613950376533111E-01
     3.232242562287980        0.6530307859620547E-01
     3.241805410105400        0.6447557952530641E-01
     3.251368257922820        0.6365690084705462E-01
     3.260931105740240        0.6284693797683882E-01
     3.270493953557660        0.6204558744077029E-01
     3.280056801375080        0.6125274686544323E-01
     3.289619649192500        0.6046831496771236E-01
     3.299182497009920        0.5969219154448030E-01
     3.308745344827340        0.5892427746251683E-01
     3.318308192644760        0.5816447464829473E-01
     3.327871040462180        0.5741268607785261E-01
     3.337433888279600        0.5666881576667708E-01
     3.346996736097021        0.5593276875962888E-01
     3.356559583914440        0.5520445112089194E-01
     3.366122431731860        0.5448376992396117E-01
     3.375685279549280        0.5377063324165787E-01
     3.385248127366701        0.5306495013619280E-01
     3.394810975184121        0.5236663064926642E-01
     3.404373823001541        0.5167558579221072E-01
     3.413936670818961        0.5099172753617026E-01
     3.423499518636381        0.5031496880232988E-01
     3.433062366453801        0.4964522345219523E-01
     3.442625214271221        0.4898240627791495E-01
     3.452188062088641        0.4832643299265432E-01
     3.461750909906061        0.4767722022101066E-01
     3.471313757723481        0.4703468548949643E-01
     3.480876605540901        0.4639874721706484E-01
     3.490439453358321        0.4576932470569273E-01
     3.500002301175741        0.4514633813100840E-01
     3.509565148993161        0.4452970853299309E-01
     3.519127996810581        0.4391935780672912E-01
     3.528690844628001        0.4331520869320961E-01
     3.538253692445422        0.4271718477020066E-01
     3.547816540262842        0.4212521044316624E-01
     3.557379388080262        0.4153921093625844E-01
     3.566942235897681        0.4095911228336337E-01
     3.576505083715102        0.4038484131920941E-01
     3.586067931532522        0.3981632567052792E-01
     3.595630779349942        0.3925349374729670E-01
     3.605193627167362        0.3869627473403238E-01
     3.614756474984782        0.3814459858115263E-01
     3.624319322802202        0.3759839599639190E-01
     3.633882170619622        0.3705759843629198E-01
     3.643445018437042        0.3652213809775747E-01
     3.653007866254462        0.3599194790967079E-01
     3.662570714071882        0.3546696152457696E-01
     3.672133561889302        0.3494711331042041E-01
     3.681696409706722        0.3443233834236914E-01
     3.691259257524143        0.3392257239469051E-01
     3.700822105341563        0.3341775193269934E-01
     3.710384953158982        0.3291781410476200E-01
     3.719947800976402        0.3242269673437407E-01
     3.729510648793823        0.3193233831230920E-01
     3.739073496611243        0.3144667798882529E-01
     3.748636344428663        0.3096565556594518E-01
     3.758199192246083        0.3048921148978458E-01
     3.767762040063503        0.3001728684297169E-01
     3.777324887880923        0.2954982333711911E-01
     3.786887735698343        0.2908676330536343E-01
     3.796450583515763        0.2862804969497307E-01
     3.806013431333183        0.2817362606000837E-01
     3.815576279150603        0.2772343655407114E-01
     3.825139126968023        0.2727742592310300E-01
     3.834701974785443        0.2683553949825484E-01
     3.844264822602864        0.2639772318881571E-01
     3.853827670420283        0.2596392347520722E-01
     3.863390518237703        0.2553408740205233E-01
     3.872953366055123        0.2510816257129905E-01
     3.882516213872544        0.2468609713541377E-01
     3.892079061689964        0.2426783979062650E-01
     3.901641909507384        0.2385333977025210E-01
     3.911204757324804        0.2344254683807388E-01
     3.920767605142224        0.2303541128178469E-01
     3.930330452959644        0.2263188390649638E-01
     3.939893300777064        0.2223191602829726E-01
     3.949456148594484        0.2183545946788907E-01
     3.959018996411904        0.2144246654427867E-01
     3.968581844229324        0.2105289006852860E-01
     3.978144692046744        0.2066668333757400E-01
     3.987707539864164        0.2028380012808423E-01
     3.997270387681584        0.1990419469040478E-01
     4.006833235499005        0.1952782174254937E-01
     4.016396083316424        0.1915463646425020E-01
     4.025958931133845        0.1878459449107162E-01
     4.035521778951265        0.1841765190856821E-01
     4.045084626768684        0.1805376524651955E-01
     4.054647474586105        0.1769289147321280E-01
     4.064210322403524        0.1733498798978261E-01
     4.073773170220945        0.1698001262461160E-01
     4.083336018038365        0.1662792362777295E-01
     4.092898865855785        0.1627867966554744E-01
     4.102461713673205        0.1593223981498642E-01
     4.112024561490625        0.1558856355852935E-01
     4.121587409308045        0.1524761077867920E-01
     4.131150257125465        0.1490934175272103E-01
     4.140713104942885        0.1457371714750646E-01
     4.150275952760305        0.1424069801428696E-01
     4.159838800577726        0.1391024578359796E-01
     4.169401648395145        0.1358232226019653E-01
     4.178964496212565        0.1325688961804487E-01
     4.188527344029985        0.1293391039534999E-01
     4.198090191847405        0.1261334748965598E-01
     4.207653039664826        0.1229516415298150E-01
     4.217215887482245        0.1197932398700893E-01
     4.226778735299666        0.1166579093832136E-01
     4.236341583117086        0.1135452929368322E-01
     4.245904430934506        0.1104550367538106E-01
     4.255467278751926        0.1073867903660262E-01
     4.265030126569346        0.1043402065686458E-01
     4.274592974386766        0.1013149413748992E-01
     4.284155822204186        0.9831065397120383E-02
     4.293718670021606        0.9532700667291198E-02
     4.303281517839026        0.9236366488039504E-02
     4.312844365656447        0.8942029703560273E-02
     4.322407213473866        0.8649657457970741E-02
     4.331970061291286        0.8359217203238097E-02
     4.341532909108706        0.8070677011898772E-02
     4.351095756926126        0.7784007889425390E-02
     4.360658604743547        0.7499190950155476E-02
     4.370221452560966        0.7216229740188366E-02
     4.379784300378387        0.6935164224581010E-02
     4.389347148195807        0.6656082274957243E-02
     4.398909996013226        0.6379126268993331E-02
     4.408472843830647        0.6104494410520788E-02
     4.418035691648067        0.5832437592579500E-02
     4.427598539465487        0.5563253069036969E-02
     4.437161387282907        0.5297276180627451E-02
     4.446724235100327        0.5034871161223044E-02
     4.456287082917747        0.4776421783879354E-02
     4.465849930735167        0.4522322364836550E-02
     4.475412778552587        0.4272969450902197E-02
     4.484975626370007        0.4028754372715659E-02
     4.494538474187427        0.3790056745813345E-02
     4.504101322004847        0.3557238933723035E-02
     4.513664169822268        0.3330641443762745E-02
     4.523227017639687        0.3110579199841635E-02
     4.532789865457108        0.2897338621945890E-02
     4.542352713274528        0.2691175435297545E-02
     4.551915561091947        0.2492313130627362E-02
     4.561478408909368        0.2300941998680523E-02
     4.571041256726788        0.2117218665660592E-02
     4.580604104544208        0.1941266060926350E-02
     4.590166952361628        0.1773173753262658E-02
     4.599729800179048        0.1612998597038055E-02
     4.609292647996468        0.1460765634240355E-02
     4.618855495813888        0.1316469202470020E-02
     4.628418343631308        0.1180074202241145E-02
     4.637981191448728        0.1051517479037301E-02
     4.647544039266148        0.9307092759968625E-03
     4.657106887083568        0.8175347110129259E-03
     4.666669734900989        0.7118552259093553E-03
     4.676232582718408        0.6135099423670142E-03
     4.685795430535828        0.5223168339087896E-03
     4.695358278353249        0.4380735741422784E-03
     4.704921126170668        0.3605578237208047E-03
     4.714483973988089        0.2895265133600011E-03
     4.724046821805509        0.2247132151520822E-03
     4.733609669622929        0.1658215218734264E-03
     4.743172517440349        0.1125089266086774E-03
     4.752735365257768        0.6434376154435869E-04
     4.762298213075189        0.2064776413701455E-04
     4.771861060892609         0.000000000000000    
  0  2  2  0  0.000000   #orbital l, n, z, is_polarized, population
 500    0.6270072678725185E-02     3.128766266683868     # npts, delta, cutoff
     0.000000000000000        0.2328962886937492    
    0.6270072678725185E-02    0.2330308963253384    
    0.1254014535745037E-01    0.2334468240044626    
    0.1881021803617556E-01    0.2341396655591547    
    0.2508029071490074E-01    0.2351088564401879    
    0.3135036339362593E-01    0.2363536091299720    
    0.3762043607235111E-01    0.2378729129541617    
    0.4389050875107629E-01    0.2396655350769242    
    0.5016058142980148E-01    0.2417300218642716    
    0.5643065410852667E-01    0.2440647005227522    
    0.6270072678725186E-01    0.2466676809927602    
    0.6897079946597703E-01    0.2495368580884744    
    0.7524087214470222E-01    0.2526699138793064    
    0.8151094482342741E-01    0.2560643203084172    
    0.8778101750215259E-01    0.2597173420438186    
    0.9405109018087777E-01    0.2636260395573809    
    0.1003211628596030        0.2677872724267563    
    0.1065912355383282        0.2721977028549598    
    0.1128613082170533        0.2768537994019858    
    0.1191313808957785        0.2817518409225804    
    0.1254014535745037        0.2868879207039644    
    0.1316715262532289        0.2922579507970107    