<preamble>

<basis_specs>
===============================================================================
Cl                   Z=  17    Mass=  35.450        Charge= 0.17977+309
Lmxo=2 Lmxkb= 2    BasisType=split      Semic=F
L=0  Nsemic=0  Cnfigmx=3
          i=1  nzeta=2  polorb=0  (3s)
            splnorm:   0.15000    
               vcte:    40.000    
               rinn:    3.9125    
               qcoe:    0.0000    
               qyuk:    0.0000    
               qwid:   0.10000E-01
                rcs:    4.3428      2.8730    
            lambdas:    1.0000      1.0000    
L=1  Nsemic=0  Cnfigmx=3
          i=1  nzeta=2  polorb=1  (3p)  (to be polarized perturbatively)
            splnorm:   0.15000    
               vcte:    40.000    
               rinn:    4.8580    
               qcoe:    0.0000    
               qyuk:    0.0000    
               qwid:   0.10000E-01
                rcs:    5.3923      3.5932    
            lambdas:    1.0000      1.0000    
L=2  Nsemic=0  Cnfigmx=3
          i=1  nzeta=0  polorb=0  (3d)  (perturbative polarization orbital) (from 3p)
-------------------------------------------------------------------------------
L=0  Nkbl=1  erefs: 0.17977+309
L=1  Nkbl=1  erefs: 0.17977+309
L=2  Nkbl=1  erefs: 0.17977+309
===============================================================================
</basis_specs>

<pseudopotential_header>
 Cl pb nrl pcec
 ONCVPSP-3.2017-10-31Hamann's oncvpsp                        
 3s 2.00  r= 1.56/3p 5.00  r= 1.35/3d 0.00  r= 1.76/                    3s:3p:
</pseudopotential_header>
</preamble>
Cl                            # Symbol
Cl                            # Label
   17                         # Atomic number
     7.00000000000                             # Valence charge
     35.4500000000        # Mass 
     57.9008016126        # Self energy 
   2   5                      # Lmax for basis, no. of nl orbitals 
   2   6                      # Lmax for projectors, no. of nl KB projectors
# PAOs:__________________________
  0  3  1  0  2.000000   #orbital l, n, z, is_polarized, population
 500    0.8703097585492765E-02     4.342845695160890     # npts, delta, cutoff
     0.000000000000000        0.1664655432660470    
    0.8703097585492765E-02    0.1666050379390180    
    0.1740619517098553E-01    0.1670291795503233    
    0.2610929275647830E-01    0.1677355548742028    
    0.3481239034197106E-01    0.1687233713892572    
    0.4351548792746383E-01    0.1699915228360126    
    0.5221858551295659E-01    0.1715385914258388    
    0.6092168309844936E-01    0.1733628510774888    
    0.6962478068394212E-01    0.1754622713812913    
    0.7832787826943488E-01    0.1778345222347680    
    0.8703097585492765E-01    0.1804769791142683    
    0.9573407344042043E-01    0.1833867289480663    
    0.1044371710259132        0.1865605765541597    
    0.1131402686114059        0.1899950516033906    
    0.1218433661968987        0.1936864160660702    
    0.1305464637823915        0.1976306720981852    
    0.1392495613678842        0.2018235703215746    
    0.1479526589533770        0.2062606184512126    
    0.1566557565388698        0.2109370902219406    
    0.1653588541243625        0.2158480345666438    
    0.1740619517098553        0.2209882849980048    
    0.1827650492953481        0.2263524691465329    
    0.1914681468808409        0.2319350184085942    
    0.2001712444663336        0.2377301776596101    
    0.2088743420518264        0.2437320149894506    
    0.2175774396373191        0.2499344314192716    
    0.2262805372228119        0.2563311705616385    
    0.2349836348083047        0.2629158281886691    
    0.2436867323937974        0.2696818616761094    
    0.2523898299792902        0.2766225992946819    
    0.2610929275647830        0.2837312493236568    
    0.2697960251502757        0.2910009089653620    
    0.2784991227357685        0.2984245730432352    
    0.2872022203212612        0.3059951424699630    
    0.2959053179067540        0.3137054324761846    
    0.3046084154922468        0.3215481805941816    
    0.3133115130777395        0.3295160543947931    
    0.3220146106632323        0.3376016589795234    
    0.3307177082487251        0.3457975442333691    
    0.3394208058342179        0.3540962118471794    
    0.3481239034197106        0.3624901221215283    
    0.3568270010052034        0.3709717005668329    
    0.3655300985906961        0.3795333443169476    
    0.3742331961761889        0.3881674283756848    
    0.3829362937616817        0.3968663117173854    
    0.3916393913471745        0.4056223432642222    
    0.4003424889326672        0.4144278677637695    
    0.4090455865181600        0.4232752315911257    
    0.4177486841036527        0.4321567884999721    
    0.4264517816891455        0.4410649053467722    
    0.4351548792746383        0.4499919678117082    
    0.4438579768601310        0.4589303861389583    
    0.4525610744456238        0.4678726009174669    
    0.4612641720311166        0.4768110889216897    
    0.4699672696166093        0.4857383690297112    
    0.4786703672021021        0.4946470082337204    
    0.4873734647875949        0.5035296277551804    
    0.4960765623730876        0.5123789092742284    
    0.5047796599585804        0.5211876012795814    
    0.5134827575440731        0.5299485255422355    
    0.5221858551295659        0.5386545837125545    
    0.5308889527150586        0.5472987640372778    
    0.5395920503005515        0.5558741481891732    
    0.5482951478860442        0.5643739181988880    
    0.5569982454715370        0.5727913634749812    
    0.5657013430570298        0.5811198878949533    
    0.5744044406425225        0.5893530169468868    
    0.5831075382280153        0.5974844048984067    
    0.5918106358135080        0.6055078419669465    
    0.6005137333990008        0.6134172614628304    
    0.6092168309844935        0.6212067468745373    
    0.6179199285699863        0.6288705388636673    
    0.6266230261554790        0.6364030421356337    
    0.6353261237409719        0.6437988321510080    
    0.6440292213264647        0.6510526616416735    
    0.6527323189119574        0.6581594668956359    
    0.6614354164974502        0.6651143737743787    
    0.6701385140829429        0.6719127034271923    
    0.6788416116684357        0.6785499776676527    
    0.6875447092539284        0.6850219239788854    
    0.6962478068394212        0.6913244801157571    
    0.7049509044249140        0.6974537982742255    
    0.7136540020104067        0.7034062488005270    
    0.7223570995958996        0.7091784234154521    
    0.7310601971813923        0.7147671379321036    
    0.7397632947668851        0.7201694344486468    
    0.7484663923523778        0.7253825830012114    
    0.7571694899378706        0.7304040826656293    
    0.7658725875233634        0.7352316621006452    
    0.7745756851088561        0.7398632795290636    
    0.7832787826943489        0.7442971221573831    
    0.7919818802798416        0.7485316050384521    
    0.8006849778653344        0.7525653693856292    
    0.8093880754508271        0.7563972803509327    
    0.8180911730363200        0.7600264242834178    
    0.8267942706218127        0.7634521054877347    
    0.8354973682073055        0.7666738425061970    
    0.8442004657927983        0.7696913639510274    
    0.8529035633782910        0.7725046039163658    
    0.8616066609637838        0.7751136970022863    
    0.8703097585492765        0.7775189729854496    
    0.8790128561347693        0.7797209511729906    
    0.8877159537202620        0.7817203344778937    
    0.8964190513057548        0.7835180032552764    
    0.9051221488912475        0.7851150089399425    
    0.9138252464767403        0.7865125675259232    
    0.9225283440622332        0.7877120529287642    
    0.9312314416477259        0.7887149902709527    
    0.9399345392332187        0.7895230491300773    
    0.9486376368187114        0.7901380367881675    
    0.9573407344042042        0.7905618915190670    
    0.9660438319896969        0.7907966759488572    
    0.9747469295751897        0.7908445705221252    
    0.9834500271606825        0.7907078671042608    
    0.9921531247461752        0.7903889627472840    
     1.000856222331668        0.7898903536436281    
     1.009559319917161        0.7892146292890779    
     1.018262417502654        0.7883644668726050    
     1.026965515088146        0.7873426259075110    
     1.035668612673639        0.7861519431145588    
     1.044371710259132        0.7847953275641485    
     1.053074807844625        0.7832757560810085    
     1.061777905430117        0.7815962689113812    
     1.070481003015610        0.7797599656491300    
     1.079184100601103        0.7777700014137414    
     1.087887198186596        0.7756295832702187    
     1.096590295772088        0.7733419668777641    
     1.105293393357581        0.7709104533514278    
     1.113996490943074        0.7683383863183986    
     1.122699588528567        0.7656291491484761    
     1.131402686114060        0.7627861623364399    
     1.140105783699552        0.7598128812772520    
     1.148808881285045        0.7567127933131267    
     1.157511978870538        0.7534894155259170    
     1.166215076456031        0.7501462929139230    
     1.174918174041523        0.7466869959218344    
     1.183621271627016        0.7431151182052551    
     1.192324369212509        0.7394342743685163    
     1.201027466798002        0.7356480976515144    
     1.209730564383494        0.7317602375426779    
     1.218433661968987        0.7277743572969347    
     1.227136759554480        0.7236941313394072    
     1.235839857139973        0.7195232425380268    
     1.244542954725465        0.7152653793307101    
     1.253246052310958        0.7109242326953579    
     1.261949149896451        0.7065034929540781    
     1.270652247481944        0.7020068464059140    
     1.279355345067436        0.6974379717856103    
     1.288058442652929        0.6928005365490874    
     1.296761540238422        0.6880981929893102    
     1.305464637823915        0.6833345741906873    
     1.314167735409407        0.6785132898343230    
     1.322870832994900        0.6736379218523584    
     1.331573930580393        0.6687120199867594    
     1.340277028165886        0.6637390971916616    
     1.348980125751379        0.6587226250468206    
     1.357683223336871        0.6536660290320545    
     1.366386320922364        0.6485726838087396    
     1.375089418507857        0.6434459085716588    
     1.383792516093350        0.6382889621346237    
     1.392495613678842        0.6331050384437995    
     1.401198711264335        0.6278972620095363    
     1.409901808849828        0.6226686833958077    
     1.418604906435321        0.6174222751172184    
     1.427308004020813        0.6121609274242614    
     1.436011101606306        0.6068874443980744    
     1.444714199191799        0.6016045404014840    
     1.453417296777292        0.5963148367245447    
     1.462120394362785        0.5910208585243497    
     1.470823491948277        0.5857250321225200    
     1.479526589533770        0.5804296826539316    
     1.488229687119263        0.5751370320858938    
     1.496932784704756        0.5698491976332063    
     1.505635882290248        0.5645681905813352    
     1.514338979875741        0.5592959154781918    
     1.523042077461234        0.5540341697936146    
     1.531745175046727        0.5487846445738315    
     1.540448272632220        0.5435489250284323    
     1.549151370217712        0.5383284890626701    
     1.557854467803205        0.5331247084588682    
     1.566557565388698        0.5279388583156144    
     1.575260662974191        0.5227721309336977    
     1.583963760559683        0.5176256507366861    
     1.592666858145176        0.5125004875028688    
     1.601369955730669        0.5073976620589088    
     1.610073053316162        0.5023181455109510    
     1.618776150901654        0.4972628590722654    
     1.627479248487147        0.4922326763432000    
     1.636182346072640        0.4872284253092768    
     1.644885443658133        0.4822508898129447    
     1.653588541243625        0.4773008110356843    
     1.662291638829118        0.4723788889280294    
     1.670994736414611        0.4674857836343046    
     1.679697834000104        0.4626221168779886    
     1.688400931585597        0.4577884733017454    
     1.697104029171089        0.4529854017671336    
     1.705807126756582        0.4482134166174991    
     1.714510224342075        0.4434729989048142    
     1.723213321927568        0.4387645975800288    
     1.731916419513060        0.4340886306483056    
     1.740619517098553        0.4294454862897761    
     1.749322614684046        0.4248355239469511    
     1.758025712269539        0.4202590753794194    
     1.766728809855031        0.4157164456865124    
     1.775431907440524        0.4112079142992552    
     1.784135005026017        0.4067337359415549    
     1.792838102611510        0.4022941415623176    
     1.801541200197002        0.3978893392385535    
     1.810244297782495        0.3935195150504600    
     1.818947395367988        0.3891848339295674    
     1.827650492953481        0.3848854404797808    
     1.836353590538973        0.3806214597731715    
     1.845056688124466        0.3763929981202173    
     1.853759785709959        0.3722001438156328    
     1.862462883295452        0.3680429678607532    
     1.871165980880944        0.3639215246621633    
     1.879869078466437        0.3598358527084363    
     1.888572176051930        0.3557859752246461    
     1.897275273637423        0.3517719008055297    
     1.905978371222916        0.3477936240285279    
     1.914681468808408        0.3438511260459893    
     1.923384566393901        0.3399443751584332    
     1.932087663979394        0.3360733273687294    
     1.940790761564887        0.3322379269176228    
     1.949493859150379        0.3284381068019337    
     1.958196956735872        0.3246737892748680    
     1.966900054321365        0.3209448863296882    
     1.975603151906858        0.3172513001672860    
     1.984306249492350        0.3135929236474268    
     1.993009347077843        0.3099696407250034    
     2.001712444663336        0.3063813268712572    
     2.010415542248829        0.3028278494803423    
     2.019118639834322        0.2993090682621501    
     2.027821737419814        0.2958248356212914    
     2.036524835005307        0.2923749970228931    
     2.045227932590800        0.2889593913457814    
     2.053931030176293        0.2855778512230138    
     2.062634127761785        0.2822302033705182    
     2.071337225347278        0.2789162689040867    
     2.080040322932771        0.2756358636450107    
     2.088743420518264        0.2723887984148151    
     2.097446518103756        0.2691748793193841    
     2.106149615689249        0.2659939080228325    
     2.114852713274742        0.2628456820113924    
     2.123555810860235        0.2597299948476893    
     2.132258908445727        0.2566466364157470    
     2.140962006031220        0.2535953931568476    
     2.149665103616713        0.2505760482967271    
     2.158368201202206        0.2475883820643671    
     2.167071298787699        0.2446321719024138    
     2.175774396373191        0.2417071926698282    
     2.184477493958684        0.2388132168368948    
     2.193180591544177        0.2359500146726018    
     2.201883689129670        0.2331173544250348    
     2.210586786715163        0.2303150024948438    
     2.219289884300655        0.2275427236017614    
     2.227992981886148        0.2248002809448452    
     2.236696079471641        0.2220874363564433    
     2.245399177057133        0.2194039504498687    
     2.254102274642626        0.2167495827613851    
     2.262805372228119        0.2141240918865591    
     2.271508469813612        0.2115272356109145    
     2.280211567399105        0.2089587710354178    
     2.288914664984597        0.2064184546969046    
     2.297617762570090        0.2039060426833912    
     2.306320860155583        0.2014212907446374    
     2.315023957741075        0.1989639543982281    
     2.323727055326569        0.1965337890310397    
     2.332430152912061        0.1941305499963551    
     2.341133250497554        0.1917539927070064    
     2.349836348083047        0.1894038727243633    
     2.358539445668539        0.1870799458433540    
     2.367242543254032        0.1847819681739419    
     2.375945640839525        0.1825096962188642    
     2.384648738425018        0.1802628869478199    
     2.393351836010511        0.1780412978684124    
     2.402054933596003        0.1758446870937781    
     2.410758031181496        0.1736728134070537    
     2.419461128766989        0.1715254363228458    
     2.428164226352481        0.1694023161457819    
     2.436867323937974        0.1673032140262295    
     2.445570421523467        0.1652278920132963    
     2.454273519108960        0.1631761131052228    
     2.462976616694453        0.1611476412972399    
     2.471679714279945        0.1591422416270053    
     2.480382811865438        0.1571596802176712    
     2.489085909450931        0.1551997243187004    
     2.497789007036423        0.1532621423445192    
     2.506492104621916        0.1513467039110526    
     2.515195202207409        0.1494531798702305    
     2.523898299792902        0.1475813423425581    
     2.532601397378395        0.1457309647478369    
     2.541304494963887        0.1439018218340198    
     2.550007592549380        0.1420936897043620    
     2.558710690134873        0.1403063458429192    
     2.567413787720366        0.1385395691383971    
     2.576116885305859        0.1367931399064592    
     2.584819982891351        0.1350668399105514    
     2.593523080476844        0.1333604523813099    
     2.602226178062337        0.1316737620345444    
     2.610929275647830        0.1300065550879249    
     2.619632373233322        0.1283586192763961    
     2.628335470818815        0.1267297438663523    
     2.637038568404308        0.1251197196686341    
     2.645741665989801        0.1235283390503975    
     2.654444763575293        0.1219553959458987    
     2.663147861160786        0.1204006858662239    
     2.671850958746279        0.1188640059080213    
     2.680554056331772        0.1173451547612671    
     2.689257153917264        0.1158439327161079    
     2.697960251502757        0.1143601416688153    
     2.706663349088250        0.1128935851268899    
     2.715366446673743        0.1114440682133377    
     2.724069544259236        0.1100113976701771    
     2.732772641844728        0.1085953818611888    
     2.741475739430221        0.1071958307739449    
     2.750178837015714        0.1058125560211369    
     2.758881934601207        0.1044453708412623    
     2.767585032186699        0.1030940900986664    
     2.776288129772192        0.1017585302829790    
     2.784991227357685        0.1004385095079609    
     2.793694324943178        0.9913384750981458E-01
     2.802397422528670        0.9784436564494918E-01
     2.811100520114163        0.9656988688723936E-01
     2.819803617699656        0.9531023582479850E-01
     2.828506715285149        0.9406523865629093E-01
     2.837209812870642        0.9283472318679778E-01
     2.845912910456134        0.9161851882325836E-01
     2.854616008041627        0.9041645656951108E-01
     2.863319105627120        0.8922836902094665E-01
     2.872022203212612        0.8805409035879271E-01
     2.880725300798106        0.8689345634405965E-01
     2.889428398383598        0.8574630431113528E-01
     2.898131495969091        0.8461247316105990E-01
     2.906834593554584        0.8349180335447459E-01
     2.915537691140076        0.8238413690441020E-01
     2.924240788725569        0.8128931736867084E-01
     2.932943886311062        0.8020718984198467E-01
     2.941646983896555        0.7913760094799005E-01
     2.950350081482048        0.7808039883064617E-01
     2.959053179067540        0.7703543314589674E-01
     2.967756276653033        0.7600255505310262E-01
     2.976459374238526        0.7498161720678291E-01
     2.985162471824018        0.7397247374602428E-01
     2.993865569409511        0.7297498028560592E-01
     3.002568666995004        0.7198899390658420E-01
     3.011271764580497        0.7101437314379383E-01
     3.019974862165990        0.7005097798150071E-01
     3.028677959751482        0.6909866984327148E-01
     3.037381057336975        0.6815731157847113E-01
     3.046084154922468        0.6722676745805203E-01
     3.054787252507960        0.6630690315803278E-01
     3.063490350093454        0.6539758573976012E-01
     3.072193447678946        0.6449868365790362E-01
     3.080896545264439        0.6361006674334559E-01
     3.089599642849932        0.6273160619186165E-01
     3.098302740435424        0.6186317455270348E-01
     3.107005838020917        0.6100464571809151E-01
     3.115708935606410        0.6015589491242378E-01
     3.124412033191903        0.5931679868145690E-01
     3.133115130777396        0.5848723488153827E-01
     3.141818228362888        0.5766708266854165E-01
     3.150521325948381        0.5685622248680702E-01
     3.159224423533874        0.5605453605807990E-01
     3.167927521119366        0.5526190637041561E-01
     3.176630618704859        0.5447821766706128E-01
     3.185333716290352        0.5370335543531752E-01
     3.194036813875845        0.5293720639537937E-01
     3.202739911461338        0.5217965848916330E-01
     3.211443009046830        0.5143060086912695E-01
     3.220146106632323        0.5068992388709042E-01
     3.228849204217816        0.4995751908305581E-01
     3.237552301803309        0.4923327917402963E-01
     3.246255399388801        0.4851709804285077E-01
     3.254958496974294        0.4780887072702986E-01
     3.263661594559787        0.4710849340760192E-01
     3.272364692145280        0.4641586339799363E-01
     3.281067789730773        0.4573087913291075E-01
     3.289770887316265        0.4505344015724758E-01
     3.298473984901758        0.4438344711502092E-01
     3.307177082487251        0.4372080173833123E-01
     3.315880180072744        0.4306540683635413E-01
     3.324583277658236        0.4241716628436003E-01
     3.333286375243729        0.4177598501277350E-01
     3.341989472829222        0.4114176899626588E-01
     3.350692570414715        0.4051442524288690E-01
     3.359395668000207        0.3989386178323599E-01
     3.368098765585700        0.3927998765967473E-01
     3.376801863171193        0.3867271291558717E-01
     3.385504960756686        0.3807194858468275E-01
     3.394208058342179        0.3747760668034809E-01
     3.402911155927671        0.3688960018504293E-01
     3.411614253513164        0.3630784303975335E-01
     3.420317351098657        0.3573225013349268E-01
     3.429020448684149        0.3516273729285666E-01
     3.437723546269642        0.3459922127163297E-01
     3.446426643855135        0.3404161974046052E-01
     3.455129741440628        0.3348985127655581E-01
     3.463832839026121        0.3294383535348955E-01
     3.472535936611613        0.3240349233102432E-01
     3.481239034197106        0.3186874344501109E-01
     3.489942131782599        0.3133951079734228E-01
     3.498645229368092        0.3081571734597520E-01
     3.507348326953585        0.3029728689501116E-01
     3.516051424539077        0.2978414408483942E-01
     3.524754522124570        0.2927621438234013E-01
     3.533457619710063        0.2877342407115638E-01
     3.542160717295555        0.2827570024203144E-01
     3.550863814881048        0.2778297078320858E-01
     3.559566912466541        0.2729516437089891E-01
     3.568270010052034        0.2681221045980794E-01
     3.576973107637527        0.2633403927373884E-01
     3.585676205223019        0.2586058179625842E-01
     3.594379302808512        0.2539176976143035E-01
     3.603082400394005        0.2492753564461721E-01
     3.611785497979497        0.2446781265334272E-01
     3.620488595564990        0.2401253471823376E-01
     3.629191693150483        0.2356163648402510E-01
     3.637894790735976        0.2311505330063243E-01
     3.646597888321469        0.2267272121429628E-01
     3.655300985906961        0.2223457695878510E-01
     3.664004083492454        0.2180055794668125E-01
     3.672707181077947        0.2137060226072851E-01
     3.681410278663440        0.2094464864524847E-01
     3.690113376248933        0.2052263649762831E-01
     3.698816473834425        0.2010450585986856E-01
     3.707519571419918        0.1969019741021196E-01
     3.716222669005411        0.1927965245483542E-01
     3.724925766590903        0.1887281291960941E-01
     3.733628864176396        0.1846962134192996E-01
     3.742331961761889        0.1807002086260747E-01
     3.751035059347382        0.1767395521783824E-01
     3.759738156932875        0.1728136873123796E-01
     3.768441254518367        0.1689220630594079E-01
     3.777144352103860        0.1650641341677118E-01
     3.785847449689353        0.1612393610247254E-01
     3.794550547274846        0.1574472095801372E-01
     3.803253644860338        0.1536871512695974E-01
     3.811956742445831        0.1499586629390644E-01
     3.820659840031324        0.1462612267698435E-01
     3.829362937616817        0.1425943302042225E-01
     3.838066035202309        0.1389574658718055E-01
     3.846769132787802        0.1353501315165333E-01
     3.855472230373295        0.1317718299242991E-01
     3.864175327958788        0.1282220688512275E-01
     3.872878425544281        0.1247003609525980E-01
     3.881581523129773        0.1212062237123355E-01
     3.890284620715266        0.1177391793732640E-01
     3.898987718300759        0.1142987548679008E-01
     3.907690815886252        0.1108844817498905E-01
     3.916393913471744        0.1074958961260856E-01
     3.925097011057237        0.1041325385891390E-01
     3.933800108642730        0.1007939541508592E-01
     3.942503206228223        0.9747969219204025E-02
     3.951206303813716        0.9418930730845600E-02
     3.959909401399208        0.9092237034095356E-02
     3.968612498984701        0.8767851710345033E-02
     3.977315596570194        0.8445755502376102E-02
     3.986018694155686        0.8125960709008805E-02
     3.994721791741179        0.7808524855948868E-02
     4.003424889326672        0.7493560166269934E-02
     4.012127986912165        0.7181237539558931E-02
     4.020831084497657        0.6871785420327794E-02
     4.029534182083150        0.6565484729290414E-02
     4.038237279668643        0.6262661192510691E-02
     4.046940377254136        0.5963676245788394E-02
     4.055643474839629        0.5668917425454524E-02
     4.064346572425121        0.5378788890326431E-02
     4.073049670010614        0.5093702496204462E-02
     4.081752767596107        0.4814069673626551E-02
     4.090455865181600        0.4540294236866786E-02
     4.099158962767093        0.4272766167986519E-02
     4.107862060352585        0.4011856364521536E-02
     4.116565157938078        0.3757912304986925E-02
     4.125268255523570        0.3511254566507761E-02
     4.133971353109064        0.3272174118785182E-02
     4.142674450694556        0.3040930315017578E-02
     4.151377548280049        0.2817749500884323E-02
     4.160080645865542        0.2602824165688222E-02
     4.168783743451034        0.2396312564111520E-02
     4.177486841036528        0.2198338742039349E-02
     4.186189938622020        0.2008992904995841E-02
     4.194893036207513        0.1828332072602343E-02
     4.203596133793005        0.1656380966780472E-02
     4.212299231378498        0.1493133084928796E-02
     4.221002328963992        0.1338551911683571E-02
     4.229705426549484        0.1192572223649405E-02
     4.238408524134977        0.1055101439905561E-02
     4.247111621720469        0.9260209658296185E-03
     4.255814719305962        0.8051874664110447E-03
     4.264517816891455        0.6924339831422055E-03
     4.273220914476948        0.5875707665664955E-03
     4.281924012062441        0.4903856151103528E-03
     4.290627109647933        0.4006433457570664E-03
     4.299330207233426        0.3180836644829336E-03
     4.308033304818919        0.2424158553425992E-03
     4.316736402404412        0.1733064231822102E-03
     4.325439499989904        0.1103484806673632E-03
     4.334142597575397        0.5297035977957532E-04
     4.342845695160890         0.000000000000000    
  0  3  2  0  0.000000   #orbital l, n, z, is_polarized, population
 500    0.5757505759146355E-02     2.872995373814031     # npts, delta, cutoff
     0.000000000000000       -0.2047248926212723    
    0.5757505759146355E-02   -0.2046157233640300    
    0.1151501151829271E-01   -0.2042778228355380    
    0.1727251727743907E-01   -0.2037148334279792    
    0.2303002303658542E-01   -0.2029270297266427    
    0.2878752879573177E-01   -0.2019147939385492    
    0.3454503455487813E-01   -0.2006786165109553    
    0.4030254031402448E-01   -0.1992190957735532    
    0.4606004607317084E-01   -0.1975369373637074    
    0.5181755183231719E-01   -0.1956329535206487    
    0.5757505759146354E-01   -0.1935080622674877    
    0.6333256335060990E-01   -0.1911632864879302    
    0.6909006910975626E-01   -0.1885997529018015    
    0.7484757486890262E-01   -0.1858186909427952    
    0.8060508062804897E-01   -0.1828214315417893    
    0.8636258638719532E-01   -0.1796094058191580    
    0.9212009214634168E-01   -0.1761841436896873    
    0.9787759790548803E-01   -0.1725472723838632    
    0.1036351036646344       -0.1687005148894898    
    0.1093926094237807       -0.1646456883177553    
    0.1151501151829271       -0.1603847021980082    
    0.1209076209420735       -0.1559195567056431    