<preamble>

<basis_specs>
===============================================================================
Co                   Z=  27    Mass=  58.933        Charge= 0.17977+309
Lmxo=2 Lmxkb= 2    BasisType=split      Semic=T
L=0  Nsemic=1  Cnfigmx=4
          i=1  nzeta=1  polorb=0  (3s)  (semicore shell)
            splnorm:   0.15000    
               vcte:    40.000    
               rinn:    2.1561    
               qcoe:    0.0000    
               qyuk:    0.0000    
               qwid:   0.10000E-01
                rcs:    2.3933    
            lambdas:    1.0000    
          i=2  nzeta=2  polorb=0  (4s)  (to be polarized non-perturbatively)
            splnorm:   0.15000    
               vcte:    40.000    
               rinn:    6.1411    
               qcoe:    0.0000    
               qyuk:    0.0000    
               qwid:   0.10000E-01
                rcs:    6.8166      4.8055    
            lambdas:    1.0000      1.0000    
L=1  Nsemic=1  Cnfigmx=4
          i=1  nzeta=1  polorb=0  (3p)  (semicore shell)
            splnorm:   0.15000    
               vcte:    40.000    
               rinn:    2.3982    
               qcoe:    0.0000    
               qyuk:    0.0000    
               qwid:   0.10000E-01
                rcs:    2.6620    
            lambdas:    1.0000    
          i=2  nzeta=1  polorb=0  (4p)  (non-perturbative polarization shell)
            splnorm:   0.15000    
               vcte:    40.000    
               rinn:    6.1411    
               qcoe:    0.0000    
               qyuk:    0.0000    
               qwid:   0.10000E-01
                rcs:    6.8166    
            lambdas:    1.0000    
L=2  Nsemic=0  Cnfigmx=3
          i=1  nzeta=2  polorb=0  (3d)
            splnorm:   0.15000    
               vcte:    40.000    
               rinn:    3.8195    
               qcoe:    0.0000    
               qyuk:    0.0000    
               qwid:   0.10000E-01
                rcs:    4.2396      2.5266    
            lambdas:    1.0000      1.0000    
-------------------------------------------------------------------------------
L=0  Nkbl=2  erefs: 0.17977+309 0.17977+309
L=1  Nkbl=2  erefs: 0.17977+309 0.17977+309
L=2  Nkbl=1  erefs: 0.17977+309
===============================================================================
</basis_specs>

<pseudopotential_header>
 Co pb nrl pcec
 ONCVPSP-3.2017-10-31Hamann's oncvpsp                        
 3s 2.00  r= 1.26/3p 6.00  r= 1.32/3d 7.00  r= 1.66/                    3s:3p:3d:4s:
</pseudopotential_header>
</preamble>
Co                            # Symbol
Co                            # Label
   27                         # Atomic number
     17.0000000000                             # Valence charge
     58.9330000000        # Mass 
     375.232615803        # Self energy 
   2   7                      # Lmax for basis, no. of nl orbitals 
   2   6                      # Lmax for projectors, no. of nl KB projectors
# PAOs:__________________________
  0  3  1  0  2.000000   #orbital l, n, z, is_polarized, population
 500    0.4796129875799081E-02     2.393268808023742     # npts, delta, cutoff
     0.000000000000000         2.421468779348086    
    0.4796129875799081E-02     2.421390315002106    
    0.9592259751598163E-02     2.421360132686604    
    0.1438838962739724E-01     2.421309821619117    
    0.1918451950319633E-01     2.421239192275310    
    0.2398064937899541E-01     2.421148022478047    
    0.2877677925479449E-01     2.421036033791074    
    0.3357290913059357E-01     2.420902888417715    
    0.3836903900639265E-01     2.420748188721424    
    0.4316516888219173E-01     2.420571477380681    
    0.4796129875799082E-01     2.420372237780396    
    0.5275742863378990E-01     2.420149894530878    
    0.5755355850958897E-01     2.419903814077595    
    0.6234968838538806E-01     2.419633305387136    
    0.6714581826118714E-01     2.419337620702631    
    0.7194194813698622E-01     2.419015956365016    
    0.7673807801278530E-01     2.418667453697840    
    0.8153420788858438E-01     2.418291199953862    
    0.8633033776438347E-01     2.417886229322036    
    0.9112646764018255E-01     2.417451523993480    
    0.9592259751598163E-01     2.416986015285143    
    0.1007187273917807         2.416488584819805    
    0.1055148572675798         2.415958065761092    
    0.1103109871433789         2.415393244102075    
    0.1151071170191779         2.414792860006012    
    0.1199032468949770         2.414155609197763    
    0.1246993767707761         2.413480144404301    
    0.1294955066465752         2.412765076842755    
    0.1342916365223743         2.412008977754339    
    0.1390877663981734         2.411210379982458    
    0.1438838962739724         2.410367779593300    
    0.1486800261497715         2.409479637537097    
    0.1534761560255706         2.408544381348269    
    0.1582722859013697         2.407560406882571    
    0.1630684157771688         2.406526080089365    
    0.1678645456529679         2.405439738817077    
    0.1726606755287669         2.404299694649885    
    0.1774568054045660         2.403104234773630    
    0.1822529352803651         2.401851623868943    
    0.1870490651561642         2.400540106029538    
    0.1918451950319633         2.399167906703579    
    0.1966413249077623         2.397733234656076    
    0.2014374547835614         2.396234283950137    
    0.2062335846593605         2.394669235944992    
    0.2110297145351596         2.393036261308645    
    0.2158258444109587         2.391333522042983    
    0.2206219742867578         2.389559173519195    
    0.2254181041625568         2.387711366521334    
    0.2302142340383559         2.385788249295853    
    0.2350103639141550         2.383787969604942    
    0.2398064937899541         2.381708676781491    
    0.2446026236657531         2.379548523783533    
    0.2493987535415522         2.377305669245997    
    0.2541948834173513         2.374978279527610    
    0.2589910132931504         2.372564530750836    
    0.2637871431689495         2.370062610832722    
    0.2685832730447485         2.367470721504528    
    0.2733794029205476         2.364787080318084    
    0.2781755327963467         2.362009922636770    
    0.2829716626721458         2.359137503609115    
    0.2877677925479449         2.356168100122986    
    0.2925639224237440         2.353100012738351    
    0.2973600522995430         2.349931567596715    
    0.3021561821753421         2.346661118305243    
    0.3069523120511412         2.343287047793733    
    0.3117484419269403         2.339807770142570    
    0.3165445718027394         2.336221732379799    
    0.3213407016785385         2.332527416245623    
    0.3261368315543375         2.328723339922546    
    0.3309329614301366         2.324808059729486    
    0.3357290913059357         2.320780171778218    
    0.3405252211817348         2.316638313590568    
    0.3453213510575339         2.312381165674780    
    0.3501174809333329         2.308007453059604    
    0.3549136108091320         2.303515946784657    
    0.3597097406849311         2.298905465345668    
    0.3645058705607302         2.294174876093279    
    0.3693020004365293         2.289323096584135    
    0.3740981303123284         2.284349095883025    
    0.3788942601881274         2.279251895814983    
    0.3836903900639265         2.274030572166170    
    0.3884865199397256         2.268684255832599    
    0.3932826498155247         2.263212133915637    
    0.3980787796913238         2.257613450763459    
    0.4028749095671229         2.251887508957537    
    0.4076710394429219         2.246033670243458    
    0.4124671693187210         2.240051356405292    
    0.4172632991945201         2.233940050082909    
    0.4220594290703192         2.227699295531623    
    0.4268555589461183         2.221328699323673    
    0.4316516888219173         2.214827930991068    
    0.4364478186977164         2.208196723609443    
    0.4412439485735155         2.201434874322567    
    0.4460400784493146         2.194542244807267    
    0.4508362083251137         2.187518761678593    
    0.4556323382009128         2.180364416835098    
    0.4604284680767118         2.173079267744154    
    0.4652245979525109         2.165663437667358    
    0.4700207278283099         2.158117115826077    
    0.4748168577041090         2.150440557507247    
    0.4796129875799081         2.142634084109697    
    0.4844091174557072         2.134698083131206    
    0.4892052473315063         2.126633008096650    
    0.4940013772073054         2.118439378427599    
    0.4987975070831044         2.110117779253862    
    0.5035936369589036         2.101668861167475    
    0.5083897668347026         2.093093339919662    
    0.5131858967105017         2.084391996061438    
    0.5179820265863008         2.075565674528550    
    0.5227781564620999         2.066615284171440    
    0.5275742863378989         2.057541797231063    
    0.5323704162136981         2.048346248761404    
    0.5371665460894971         2.039029758150570    
    0.5419626759652962         2.029593500461207    
    0.5467588058410953         2.020038655655941    
    0.5515549357168944         2.010366503247747    
    0.5563510655926934         2.000578381911807    
    0.5611471954684926         1.990675688604736    
    0.5659433253442916         1.980659877641687    
    0.5707394552200907         1.970532459728637    
    0.5755355850958898         1.960295000951030    
    0.5803317149716889         1.949949121720120    
    0.5851278448474879         1.939496495678321    
    0.5899239747232871         1.928938848564899    
    0.5947201045990861         1.918277957043382    
    0.5995162344748852         1.907515647492109    
    0.6043123643506843         1.896653794759367    
    0.6091084942264834         1.885694320884540    
    0.6139046241022824         1.874639193786775    
    0.6187007539780814         1.863490425922693    
    0.6234968838538806         1.852250072914599    
    0.6282930137296796         1.840920232150797    
    0.6330891436054787         1.829503041359541    
    0.6378852734812778         1.818000677158165    
    0.6426814033570769         1.806415353579000    
    0.6474775332328759         1.794749320573661    
    0.6522736631086751         1.783004862497282    
    0.6570697929844741         1.771184296574285    
    0.6618659228602732         1.759289971347332    
    0.6666620527360723         1.747324265111011    
    0.6714581826118714         1.735289584331877    
    0.6762543124876704         1.723188362056434    
    0.6810504423634696         1.711023056308681    
    0.6858465722392686         1.698796148478756    
    0.6906427021150677         1.686510141704294    
    0.6954388319908668         1.674167559246076    
    0.7002349618666659         1.661770942859457    
    0.7050310917424649         1.649322851163193    
    0.7098272216182641         1.636825858007133    
    0.7146233514940631         1.624282550840332    
    0.7194194813698622         1.611695529081026    
    0.7242156112456613         1.599067402489962    
    0.7290117411214604         1.586400789548531    
    0.7338078709972594         1.573698315843127    
    0.7386040008730586         1.560962612457131    
    0.7434001307488576         1.548196314371869    
    0.7481962606246567         1.535402058877913    
    0.7529923905004557         1.522582483998049    
    0.7577885203762549         1.509740226923175    
    0.7625846502520539         1.496877922462388    
    0.7673807801278530         1.483998201508495    
    0.7721769100036521         1.471103689520130    
    0.7769730398794512         1.458197005021625    
    0.7817691697552502         1.445280758121770    
    0.7865652996310494         1.432357549052531    
    0.7913614295068484         1.419429966728796    
    0.7961575593826475         1.406500587330122    
    0.8009536892584466         1.393571972905498    
    0.8057498191342457         1.380646670002009    
    0.8105459490100447         1.367727208318338    
    0.8153420788858439         1.354816099383936    
    0.8201382087616429         1.341915835264671    
    0.8249343386374420         1.329028887295755    
    0.8297304685132411         1.316157704842631    
    0.8345265983890402         1.303304714090559    
    0.8393227282648392         1.290472316863523    
    0.8441188581406384         1.277662889473075    
    0.8489149880164374         1.264878781597679    
    0.8537111178922365         1.252122315193073    
    0.8585072477680356         1.239395783434154    
    0.8633033776438347         1.226701449688801    
    0.8680995075196337         1.214041546524047    
    0.8728956373954329         1.201418274744934    
    0.8776917672712319         1.188833802466458    
    0.8824878971470310         1.176290264218738    
    0.8872840270228300         1.163789760085809    
    0.8920801568986292         1.151334354878060    
    0.8968762867744282         1.138926077338686    
    0.9016724166502273         1.126566919384029    
    0.9064685465260264         1.114258835378156    
    0.9112646764018255         1.102003741441496    
    0.9160608062776245         1.089803514793683    
    0.9208569361534236         1.077659993130519    
    0.9256530660292227         1.065574974034995    
    0.9304491959050217         1.053550214422363    
    0.9352453257808209         1.041587430018929    
    0.9400414556566199         1.029688294874706    
    0.9448375855324190         1.017854440909405    
    0.9496337154082181         1.006087457491820    
    0.9544298452840172        0.9943888910521780    
    0.9592259751598162        0.9827602447272209    
    0.9640221050356154        0.9712029780378190    
    0.9688182349114144        0.9597185065985200    
    0.9736143647872135        0.9483082018590283    
    0.9784104946630126        0.9369733908768910    
    0.9832066245388117        0.9257153561212041    
    0.9880027544146107        0.9145353353068598    
    0.9927988842904099        0.9034345212587509    
    0.9975950141662089        0.8924140618057486    
     1.002391144042008        0.8814750597036141    
     1.007187273917807        0.8706185725866482    
     1.011983403793606        0.8598456129473696    
     1.016779533669405        0.8491571481436765    
     1.021575663545204        0.8385541004331545    
     1.026371793421003        0.8280373470336488    
     1.031167923296803        0.8176077202098073    
     1.035964053172602        0.8072660073848505    
     1.040760183048401        0.7970129512769569    
     1.045556312924200        0.7868492500598410    
     1.050352442799999        0.7767755575466679    
     1.055148572675798        0.7667924833968645    
     1.059944702551597        0.7569005933451753    
     1.064740832427396        0.7471004094522254    
     1.069536962303195        0.7373924103761517    
     1.074333092178994        0.7277770316645072    
     1.079129222054793        0.7182546660658734    
     1.083925351930592        0.7088256638605963    
     1.088721481806392        0.6994903332099223    
     1.093517611682191        0.6902489405229829    
     1.098313741557990        0.6811017108409757    
     1.103109871433789        0.6720488282378928    
     1.107906001309588        0.6630904362372780    
     1.112702131185387        0.6542266382443007    
     1.117498261061186        0.6454574979926174    
     1.122294390936985        0.6367830400053517    
     1.127090520812784        0.6282032500696909    
     1.131886650688583        0.6197180757244606    
     1.136682780564382        0.6113274267601260    
     1.141478910440181        0.6030311757307114    
     1.146275040315980        0.5948291584769896    
     1.151071170191780        0.5867211746604595    
     1.155867300067579        0.5787069883076564    
     1.160663429943378        0.5707863283641122    
     1.165459559819177        0.5629588892576034    
     1.170255689694976        0.5552243314702118    
     1.175051819570775        0.5475822821185695    
     1.179847949446574        0.5400323355419638    
     1.184644079322373        0.5325740538979091    
     1.189440209198172        0.5252069677644764    
     1.194236339073971        0.5179305767492550    
     1.199032468949770        0.5107443501044631    
     1.203828598825569        0.5036477273476422    
     1.208624728701369        0.4966401188877843    
     1.213420858577168        0.4897209066565049    
     1.218216988452967        0.4828894447434752    
     1.223013118328766        0.4761450599698783    
     1.227809248204565        0.4694870524882820    
     1.232605378080364        0.4629146967356122    
     1.237401507956163        0.4564272423762732    
     1.242197637831962        0.4500239150362232    
     1.246993767707761        0.4437039154007765    
     1.251789897583560        0.4374664189948912    
     1.256586027459359        0.4313105770743456    
     1.261382157335158        0.4252355209422736    
     1.266178287210957        0.4192403671714288    
     1.270974417086757        0.4133242231841873    
     1.275770546962556        0.4074861929664689    
     1.280566676838355        0.4017253821778122    
     1.285362806714154        0.3960409025702138    
     1.290158936589953        0.3904318730582806    
     1.294955066465752        0.3848974190775576    
     1.299751196341551        0.3794366712675587    
     1.304547326217350        0.3740487650679852    
     1.309343456093149        0.3687328412861657    
     1.314139585968948        0.3634880464728363    
     1.318935715844747        0.3583135332392768    
     1.323731845720546        0.3532084602465909    
     1.328527975596346        0.3481719923029177    
     1.333324105472145        0.3432033004656883    
     1.338120235347944        0.3383015621399411    
     1.342916365223743        0.3334659611717707    
     1.347712495099542        0.3286956879212832    
     1.352508624975341        0.3239899393441293    
     1.357304754851140        0.3193479190599139    
     1.362100884726939        0.3147688374153013    
     1.366897014602738        0.3102519115436366    
     1.371693144478537        0.3057963654104174    
     1.376489274354336        0.3014014298609460    
     1.381285404230135        0.2970663426597560    
     1.386081534105934        0.2927903485262284    
     1.390877663981734        0.2885726991643106    
     1.395673793857533        0.2844126532880584    
     1.400469923733332        0.2803094766425235    
     1.405266053609131        0.2762624420202718    
     1.410062183484930        0.2722708292740327    
     1.414858313360729        0.2683339253254663    
     1.419654443236528        0.2644510241700543    
     1.424450573112327        0.2606214268785166    
     1.429246702988126        0.2568444415948501    
     1.434042832863925        0.2531193835311046    
     1.438838962739724        0.2494455749590624    
     1.443635092615523        0.2458223451989913    
     1.448431222491323        0.2422490306056091    
     1.453227352367122        0.2387249745513544    
     1.458023482242921        0.2352495274071398    
     1.462819612118720        0.2318220465206757    
     1.467615741994519        0.2284418961925061    
     1.472411871870318        0.2251084476498917    
     1.477208001746117        0.2218210790186267    
     1.482004131621916        0.2185791752928296    
     1.486800261497715        0.2153821283029771    
     1.491596391373514        0.2122293366821490    
     1.496392521249313        0.2091202058306262    
     1.501188651125112        0.2060541478788162    
     1.505984781000911        0.2030305816488915    
     1.510780910876711        0.2000489326149359    
     1.515577040752510        0.1971086328617659    
     1.520373170628309        0.1942091210424874    
     1.525169300504108        0.1913498423350558    
     1.529965430379907        0.1885302483976633    
     1.534761560255706        0.1857497973230189    
     1.539557690131505        0.1830079535918083    
     1.544353820007304        0.1803041880253041    
     1.549149949883103        0.1776379777371370    
     1.553946079758902        0.1750088060841168    
     1.558742209634701        0.1724161626166405    
     1.563538339510500        0.1698595430283474    
     1.568334469386300        0.1673384491052206    
     1.573130599262099        0.1648523886739144    
     1.577926729137898        0.1624008755499452    
     1.582722859013697        0.1599834294852411    
     1.587518988889496        0.1575995761153377    
     1.592315118765295        0.1552488469058960    
     1.597111248641094        0.1529307790996648    
     1.601907378516893        0.1506449156629897    
     1.606703508392692        0.1483908052336652    
     1.611499638268491        0.1461680020588044    
     1.616295768144290        0.1439760659485002    
     1.621091898020089        0.1418145622199325    
     1.625888027895888        0.1396830616458165    
     1.630684157771688        0.1375811403883851    
     1.635480287647487        0.1355083799546532    
     1.640276417523286        0.1334643671376906    
     1.645072547399085        0.1314486939486945    
     1.649868677274884        0.1294609576091514    
     1.654664807150683        0.1275007604518605    
     1.659460937026482        0.1255677098741982    
     1.664257066902281        0.1236614182655767    
     1.669053196778080        0.1217815030110359    
     1.673849326653879        0.1199275863913333    
     1.678645456529678        0.1180992955394103    
     1.683441586405477        0.1162962624429793    
     1.688237716281277        0.1145181237483832    
     1.693033846157076        0.1127645207989555    
     1.697829976032875        0.1110350995938142    
     1.702626105908674        0.1093295106993944    
     1.707422235784473        0.1076474092295321    
     1.712218365660272        0.1059884548027993    
     1.717014495536071        0.1043523114434265    
     1.721810625411870        0.1027386475501643    
     1.726606755287669        0.1011471358459266    
     1.731402885163468        0.9957745332597225E-01
     1.736199015039267        0.9802928120816740E-01
     1.740995144915066        0.9650230488136115E-01
     1.745791274790866        0.9499621385475142E-01
     1.750587404666665        0.9351070170860080E-01
     1.755383534542464        0.9204546604389782E-01
     1.760179664418263        0.9060020843326588E-01
     1.764975794294062        0.8917463437205457E-01
     1.769771924169861        0.8776845322985256E-01
     1.774568054045660        0.8638137820228708E-01
     1.779364183921459        0.8501312626317054E-01
     1.784160313797258        0.8366341811707341E-01
     1.788956443673057        0.8233197815225658E-01
     1.793752573548856        0.8101853439410446E-01
     1.798548703424655        0.7972281845873280E-01
     1.803344833300455        0.7844456550713300E-01
     1.808140963176254        0.7718351419964284E-01
     1.812937093052053        0.7593940665095508E-01
     1.817733222927852        0.7471198838534633E-01
     1.822529352803651        0.7350100829236123E-01
     1.827325482679450        0.7230621858291811E-01
     1.832121612555249        0.7112737474578713E-01
     1.836917742431048        0.6996423550461593E-01
     1.841713872306847        0.6881656277509403E-01
     1.846510002182646        0.6768412162270090E-01
     1.851306132058445        0.6656668022078625E-01
     1.856102261934244        0.6546400980915830E-01
     1.860898391810043        0.6437588465296466E-01
     1.865694521685843        0.6330208200197356E-01
     1.870490651561642        0.6224238205030499E-01
     1.875286781437441        0.6119656789651998E-01
     1.880082911313240        0.6016442550423692E-01
     1.884879041189039        0.5914574366294480E-01
     1.889675171064838        0.5814031394933723E-01
     1.894471300940637        0.5714793068900988E-01
     1.899267430816436        0.5616839091856449E-01
     1.904063560692235        0.5520149434813815E-01
     1.908859690568034        0.5424704332422555E-01
     1.913655820443833        0.5330484279296780E-01
     1.918451950319632        0.5237470026379515E-01
     1.923248080195432        0.5145642577348722E-01
     1.928044210071231        0.5054983185058749E-01
     1.932840339947030        0.4965473348018945E-01
     1.937636469822829        0.4877094806912034E-01
     1.942432599698628        0.4789829541149138E-01
     1.947228729574427        0.4703659765462564E-01
     1.952024859450226        0.4618567926534994E-01
     1.956820989326025        0.4534536699665605E-01
     1.961617119201824        0.4451548985472748E-01
     1.966413249077623        0.4369587906633494E-01
     1.971209378953422        0.4288636804655826E-01
     1.976005508829221        0.4208679236691432E-01
     1.980801638705021        0.4129698972380793E-01
     1.985597768580820        0.4051679990733962E-01
     1.990393898456619        0.3974606477047460E-01
     1.995190028332418        0.3898462819849683E-01
     1.999986158208217        0.3823233607889658E-01
     2.004782288084016        0.3748903627153842E-01
     2.009578417959815        0.3675457857917774E-01
     2.014374547835614        0.3602881471832568E-01
     2.019170677711413        0.3531159829037151E-01
     2.023966807587212        0.3460278475314513E-01
     2.028762937463012        0.3390223139272739E-01
     2.033559067338810        0.3320979729560000E-01
     2.038355197214610        0.3252534332112489E-01
     2.043151327090408        0.3184873207427455E-01
     2.047947456966208        0.3117982787877039E-01
     2.052743586842007        0.3051849675046556E-01
     2.057539716717806        0.2986460637104747E-01
     2.062335846593605        0.2921802606204624E-01
     2.067131976469404        0.2857862675909094E-01
     2.071928106345203        0.2794628098655398E-01
     2.076724236221002        0.2732086283244038E-01
     2.081520366096801        0.2670224792356472E-01
     2.086316495972600        0.2609031340126288E-01
     2.091112625848400        0.2548493789642599E-01
     2.095908755724198        0.2488600150605191E-01
     2.100704885599998        0.2429338576950481E-01
     2.105501015475797        0.2370697364501839E-01
     2.110297145351596        0.2312664948605819E-01
     2.115093275227395        0.2255229901957847E-01
     2.119889405103194        0.2198380932302354E-01
     2.124685534978993        0.2142106880123771E-01
     2.129481664854792        0.2086396716465381E-01
     2.134277794730591        0.2031239540701806E-01
     2.139073924606390        0.1976624578393422E-01
     2.143870054482190        0.1922541179351813E-01
     2.148666184357988        0.1868978815266675E-01
     2.153462314233788        0.1815927077733624E-01
     2.158258444109586        0.1763375676194018E-01
     2.163054573985386        0.1711314436484308E-01
     2.167850703861185        0.1659733296980685E-01
     2.172646833736984        0.1608622308475947E-01
     2.177442963612783        0.1557971639997394E-01
     2.182239093488582        0.1507771677912131E-01
     2.187035223364381        0.1458013469577753E-01
     2.191831353240180        0.1408689706155912E-01
     2.196627483115979        0.1359796058174705E-01
     2.201423612991778        0.1311332464320183E-01
     2.206219742867578        0.1263304057030895E-01
     2.211015872743376        0.1215721599531014E-01
     2.215812002619176        0.1168601463596373E-01
     2.220608132494974        0.1121965249694403E-01
     2.225404262370774        0.1075839166803504E-01
     2.230200392246573        0.1030253276166660E-01
     2.234996522122372        0.9852406797617803E-02
     2.239792651998171        0.9408367107423338E-02
     2.244588781873970        0.8970781633182439E-02
     2.249384911749769        0.8540025844688368E-02
     2.254181041625568        0.8116476390208164E-02
     2.258977171501367        0.7700505522184506E-02
     2.263773301377166        0.7292476291200552E-02
     2.268569431252966        0.6892738471802571E-02
     2.273365561128764        0.6501625166876994E-02
     2.278161691004564        0.6119450028908930E-02
     2.282957820880363        0.5746505033760708E-02
     2.287753950756162        0.5383058743247805E-02
     2.292550080631961        0.5029354995480200E-02
     2.297346210507760        0.4685611965634510E-02
     2.302142340383559        0.4352021543854076E-02
     2.306938470259358        0.4028748980851178E-02
     2.311734600135157        0.3715932755182710E-02
     2.316530730010956        0.3413684618699003E-02
     2.321326859886756        0.3122089778030663E-02
     2.326122989762554        0.2841207169639114E-02
     2.330919119638354        0.2571069783183434E-02
     2.335715249514152        0.2311684981470732E-02
     2.340511379389952        0.2063034752875139E-02
     2.345307509265751        0.1825075809816500E-02
     2.350103639141550        0.1597739407167240E-02
     2.354899769017349        0.1380930682319097E-02
     2.359695898893148        0.1174527182687598E-02
     2.364492028768947        0.9783759760666397E-03
     2.369288158644746        0.7922881618013199E-03
     2.374084288520545        0.6160282463945078E-03
     2.378880418396344        0.4492922448871983E-03
     2.383676548272144        0.2916569163507066E-03
     2.388472678147942        0.1424342938044965E-03
     2.393268808023742         0.000000000000000    
  0  4  1  0  2.000000   #orbital l, n, z, is_polarized, population
 500    0.1366056301659167E-01     6.816620945279245     # npts, delta, cutoff
     0.000000000000000         1.077402809054899    
    0.1366056301659167E-01     1.077099760785118    
    0.2732112603318335E-01     1.076281423904069    