<preamble>

<basis_specs>
===============================================================================
Cr                   Z=  24    Mass=  51.996        Charge= 0.17977+309
Lmxo=2 Lmxkb= 2    BasisType=split      Semic=T
L=0  Nsemic=1  Cnfigmx=4
          i=1  nzeta=1  polorb=0  (3s)  (semicore shell)
            splnorm:   0.15000    
               vcte:    40.000    
               rinn:    2.4592    
               qcoe:    0.0000    
               qyuk:    0.0000    
               qwid:   0.10000E-01
                rcs:    2.7324    
            lambdas:    1.0000    
          i=2  nzeta=2  polorb=0  (4s)  (to be polarized non-perturbatively)
            splnorm:   0.15000    
               vcte:    40.000    
               rinn:    7.2444    
               qcoe:    0.0000    
               qyuk:    0.0000    
               qwid:   0.10000E-01
                rcs:    8.0493      5.8073    
            lambdas:    1.0000      1.0000    
L=1  Nsemic=1  Cnfigmx=4
          i=1  nzeta=1  polorb=0  (3p)  (semicore shell)
            splnorm:   0.15000    
               vcte:    40.000    
               rinn:    2.7683    
               qcoe:    0.0000    
               qyuk:    0.0000    
               qwid:   0.10000E-01
                rcs:    3.0759    
            lambdas:    1.0000    
          i=2  nzeta=1  polorb=0  (4p)  (non-perturbative polarization shell)
            splnorm:   0.15000    
               vcte:    40.000    
               rinn:    7.2517    
               qcoe:    0.0000    
               qyuk:    0.0000    
               qwid:   0.10000E-01
                rcs:    8.0493    
            lambdas:    1.0000    
L=2  Nsemic=0  Cnfigmx=3
          i=1  nzeta=2  polorb=0  (3d)
            splnorm:   0.15000    
               vcte:    40.000    
               rinn:    5.1434    
               qcoe:    0.0000    
               qyuk:    0.0000    
               qwid:   0.10000E-01
                rcs:    5.7149      3.5538    
            lambdas:    1.0000      1.0000    
-------------------------------------------------------------------------------
L=0  Nkbl=2  erefs: 0.17977+309 0.17977+309
L=1  Nkbl=2  erefs: 0.17977+309 0.17977+309
L=2  Nkbl=1  erefs: 0.17977+309
===============================================================================
</basis_specs>

<pseudopotential_header>
 Cr pb nrl pcec
 ONCVPSP-3.2017-10-31Hamann's oncvpsp                        
 3s 2.00  r= 1.31/3p 6.00  r= 1.31/3d 5.00  r= 1.72/                    3s:3p:3d:4s:
</pseudopotential_header>
</preamble>
Cr                            # Symbol
Cr                            # Label
   24                         # Atomic number
     14.0000000000                             # Valence charge
     51.9960000000        # Mass 
     240.767189811        # Self energy 
   2   7                      # Lmax for basis, no. of nl orbitals 
   2   6                      # Lmax for projectors, no. of nl KB projectors
# PAOs:__________________________
  0  3  1  0  2.000000   #orbital l, n, z, is_polarized, population
 500    0.5475731523589864E-02     2.732390030271342     # npts, delta, cutoff
     0.000000000000000         1.492860918421995    
    0.5475731523589864E-02     1.492889589582769    
    0.1095146304717973E-01     1.493079766419239    
    0.1642719457076959E-01     1.493396533791572    
    0.2190292609435946E-01     1.493839521646618    
    0.2737865761794932E-01     1.494408231411691    
    0.3285438914153919E-01     1.495102025789355    
    0.3833012066512905E-01     1.495920127761494    
    0.4380585218871891E-01     1.496861620845654    
    0.4928158371230878E-01     1.497925449719384    
    0.5475731523589864E-01     1.499110421035559    
    0.6023304675948851E-01     1.500415204380420    
    0.6570877828307838E-01     1.501838333358099    
    0.7118450980666824E-01     1.503378206795251    
    0.7666024133025810E-01     1.505033090062996    
    0.8213597285384797E-01     1.506801116514648    
    0.8761170437743783E-01     1.508680289038306    
    0.9308743590102769E-01     1.510668481723696    
    0.9856316742461756E-01     1.512763441642616    
    0.1040388989482074         1.514962790742457    
    0.1095146304717973         1.517264027852195    
    0.1149903619953871         1.519664530800190    
    0.1204660935189770         1.522161558643089    
    0.1259418250425669         1.524752254005026    
    0.1314175565661568         1.527433645526237    
    0.1368932880897466         1.530202650420094    
    0.1423690196133365         1.533056077137447    
    0.1478447511369263         1.535990628137089    
    0.1533204826605162         1.539002902760982    
    0.1587962141841061         1.542089400212799    
    0.1642719457076959         1.545246522638171    
    0.1697476772312858         1.548470578304892    
    0.1752234087548757         1.551757784881245    
    0.1806991402784655         1.555104272810309    
    0.1861748718020554         1.558506088778177    
    0.1916506033256453         1.561959199273644    
    0.1971263348492351         1.565459494236875    
    0.2026020663728250         1.569002790794364    
    0.2080777978964148         1.572584837077329    
    0.2135535294200047         1.576201316120522    
    0.2190292609435946         1.579847849838246    
    0.2245049924671844         1.583520003074171    
    0.2299807239907743         1.587213287721468    
    0.2354564555143642         1.590923166909471    
    0.2409321870379540         1.594645059252994    
    0.2464079185615439         1.598374343160227    
    0.2518836500851337         1.602106361194988    
    0.2573593816087236         1.605836424488903    
    0.2628351131323135         1.609559817198955    
    0.2683108446559034         1.613271801005691    
    0.2737865761794932         1.616967619647217    
    0.2792623077030831         1.620642503483932    
    0.2847380392266730         1.624291674088885    
    0.2902137707502628         1.627910348858441    
    0.2956895022738527         1.631493745637853    
    0.3011652337974425         1.635037087356238    
    0.3066409653210324         1.638535606665320    
    0.3121166968446223         1.641984550576198    
    0.3175924283682121         1.645379185088383    
    0.3230681598918020         1.648714799805207    
    0.3285438914153919         1.651986712529671    
    0.3340196229389817         1.655190273834775    
    0.3394953544625716         1.658320871602291    
    0.3449710859861614         1.661373935523971    
    0.3504468175097513         1.664344941559117    
    0.3559225490333412         1.667229416342537    
    0.3613982805569311         1.670022941536805    
    0.3668740120805209         1.672721158122859    
    0.3723497436041108         1.675319770623060    
    0.3778254751277006         1.677814551250769    
    0.3833012066512905         1.680201343980692    
    0.3887769381748803         1.682476068534301    
    0.3942526696984702         1.684634724274660    
    0.3997284012220601         1.686673394005325    
    0.4052041327456500         1.688588247667825    
    0.4106798642692398         1.690375545932634    
    0.4161555957928297         1.692031643678583    
    0.4216313273164196         1.693552993355798    
    0.4271070588400094         1.694936148227624    
    0.4325827903635993         1.696177765486949    
    0.4380585218871891         1.697274609242695    
    0.4435342534107790         1.698223553372537    
    0.4490099849343689         1.699021584237951    
    0.4544857164579588         1.699665803258066    
    0.4599614479815486         1.700153429339064    
    0.4654371795051385         1.700481801156051    
    0.4709129110287283         1.700648379284638    
    0.4763886425523182         1.700650748179770    
    0.4818643740759080         1.700486617999602    
    0.4873401055994979         1.700153826272473    
    0.4928158371230878         1.699650339405397    
    0.4982915686466777         1.698974254032753    
    0.5037673001702675         1.698123798204127    
    0.5092430316938574         1.697097332410651    
    0.5147187632174473         1.695893350449371    
    0.5201944947410371         1.694510480125585    
    0.5256702262646270         1.692947483793322    
    0.5311459577882168         1.691203258734522    
    0.5366216893118068         1.689276837377665    
    0.5420974208353966         1.687167387356972    
    0.5475731523589864         1.684874211413609    
    0.5530488838825763         1.682396747140546    
    0.5585246154061662         1.679734566573050    
    0.5640003469297560         1.676887375627046    
    0.5694760784533459         1.673855013387877    
    0.5749518099769357         1.670637451252223    
    0.5804275415005257         1.667234791926192    
    0.5859032730241155         1.663647268282882    
    0.5913790045477053         1.659875242082828    
    0.5968547360712952         1.655919202561135    
    0.6023304675948851         1.651779764885156    
    0.6078061991184749         1.647457668486842    
    0.6132819306420648         1.642953775274065    
    0.6187576621656546         1.638269067725365    
    0.6242333936892446         1.633404646872749    
    0.6297091252128344         1.628361730177300    
    0.6351848567364242         1.623141649302481    
    0.6406605882600142         1.617745847790125    
    0.6461363197836040         1.612175878644230    
    0.6516120513071939         1.606433401827721    
    0.6570877828307837         1.600520181677439    
    0.6625635143543736         1.594438084242658    
    0.6680392458779635         1.588189074552445    
    0.6735149774015533         1.581775213801693    
    0.6789907089251431         1.575198667870627    
    0.6844664404487331         1.568461674794778    
    0.6899421719723229         1.561566562282024    
    0.6954179034959128         1.554515747160627    
    0.7008936350195026         1.547311727649408    
    0.7063693665430925         1.539957080277006    
    0.7118450980666824         1.532454456772391    
    0.7173208295902722         1.524806580931722    
    0.7227965611138621         1.517016245466511    
    0.7282722926374520         1.509086308837918    
    0.7337480241610418         1.501019692081936    
    0.7392237556846317         1.492819375630065    
    0.7446994872082215         1.484488396129961    
    0.7501752187318114         1.476029843270396    
    0.7556509502554013         1.467446856614635    
    0.7611266817789911         1.458742622446351    
    0.7666024133025811         1.449920370631864    
    0.7720781448261709         1.440983371502371    
    0.7775538763497607         1.431934932759710    
    0.7830296078733506         1.422778396408921    
    0.7885053393969405         1.413517135720836    
    0.7939810709205304         1.404154552227507    
    0.7994568024441202         1.394694072753367    
    0.8049325339677100         1.385139146484608    
    0.8104082654913000         1.375493242079180    
    0.8158839970148898         1.365759844819674    
    0.8213597285384796         1.355942453810878    
    0.8268354600620695         1.346044579224162    
    0.8323111915856594         1.336069739589965    
    0.8377869231092493         1.326021459140130    
    0.8432626546328391         1.315903265201168    
    0.8487383861564289         1.305718685639647    
    0.8542141176800189         1.295471246360680    
    0.8596898492036087         1.285164468860092    
    0.8651655807271985         1.274801867831253    
    0.8706413122507884         1.264386948826528    
    0.8761170437743783         1.253923205974326    
    0.8815927752979682         1.243414119751197    
    0.8870685068215580         1.232863154809841    
    0.8925442383451478         1.222273757862151    
    0.8980199698687378         1.211649355617976    
    0.9034957013923276         1.200993352778521    
    0.9089714329159175         1.190309130084757    
    0.9144471644395074         1.179600042419735    
    0.9199228959630972         1.168869416964929    
    0.9253986274866871         1.158120551409403    
    0.9308743590102769         1.147356712211722    
    0.9363500905338668         1.136581132913344    
    0.9418258220574567         1.125797012503369    
    0.9473015535810465         1.115007513833220    
    0.9527772851046364         1.104215762081126    
    0.9582530166282263         1.093424843264917    
    0.9637287481518161         1.082637802803002    
    0.9692044796754060         1.071857644121981    
    0.9746802111989958         1.061087327310835    
    0.9801559427225858         1.050329767820097    
    0.9856316742461756         1.039587835206015    
    0.9911074057697654         1.028864351918193    
    0.9965831372933553         1.018162092130634    
     1.002058868816945         1.007483780614991    
     1.007534600340535        0.9968320916556940    
     1.013010331864125        0.9862096480061521    
     1.018486063387715        0.9756190198855789    
     1.023961794911305        0.9650627240159617    
     1.029437526434895        0.9545432226986140    
     1.034913257958484        0.9440629229299526    
     1.040388989482074        0.9336241755562410    
     1.045864721005664        0.9232292744668675    
     1.051340452529254        0.9128804558262207    
     1.056816184052844        0.9025798973436167    
     1.062291915576434        0.8923297175816352    
     1.067767647100023        0.8821319753024308    
     1.073243378623614        0.8719886688522204    
     1.078719110147203        0.8619017355841758    
     1.084194841670793        0.8518730513194132    
     1.089670573194383        0.8419044298470651    
     1.095146304717973        0.8319976224625614    
     1.100622036241563        0.8221543175455266    
     1.106097767765153        0.8123761401768312    
     1.111573499288742        0.8026646517953819    
     1.117049230812332        0.7930213498955042    
     1.122524962335922        0.7834476677642396    
     1.128000693859512        0.7739449742605257    
     1.133476425383102        0.7645145736351815    
     1.138952156906692        0.7551577053932150    
     1.144427888430282        0.7458755441987712    
     1.149903619953871        0.7366691998224458    
     1.155379351477461        0.7275397171329361    
     1.160855083001051        0.7184880761317318    
     1.166330814524641        0.7095151920326503    
     1.171806546048231        0.7006219153862858    
     1.177282277571821        0.6918090322490595    
     1.182758009095411        0.6830772643987399    
     1.188233740619001        0.6744272695951070    
     1.193709472142590        0.6658596418871453    
     1.199185203666180        0.6573749119670437    
     1.204660935189770        0.6489735475700622    
     1.210136666713360        0.6406559539219813    
     1.215612398236950        0.6324224742329980    
     1.221088129760540        0.6242733902383912    
     1.226563861284130        0.6162089227866219    
     1.232039592807719        0.6082292324732946    
     1.237515324331309        0.6003344203220949    
     1.242991055854899        0.5925245285119318    
     1.248466787378489        0.5847995411495165    
     1.253942518902079        0.5771593850879082    
     1.259418250425669        0.5696039307890808    
     1.264893981949259        0.5621329931861609    
     1.270369713472848        0.5547463325064643    
     1.275845444996438        0.5474436556416558    
     1.281321176520028        0.5402246176769997    
     1.286796908043618        0.5330888228962576    
     1.292272639567208        0.5260358236104348    
     1.297748371090798        0.5190651200597508    
     1.303224102614388        0.5121761637248344    
     1.308699834137978        0.5053683653870364    
     1.314175565661567        0.4986411041096625    
     1.319651297185157        0.4919937369462808    
     1.325127028708747        0.4854256081714308    
     1.330602760232337        0.4789360573045223    
     1.336078491755927        0.4725244217528193    
     1.341554223279517        0.4661900358571560    
     1.347029954803107        0.4599322288757512    
     1.352505686326696        0.4537503251740565    
     1.357981417850286        0.4476436452619837    
     1.363457149373876        0.4416115067211842    
     1.368932880897466        0.4356532246091903    
     1.374408612421056        0.4297681117762397    
     1.379884343944646        0.4239554792608207    
     1.385360075468236        0.4182146366779704    
     1.390835806991826        0.4125448925911138    
     1.396311538515415        0.4069455548659444    
     1.401787270039005        0.4014159310089180    
     1.407263001562595        0.3959553284906548    
     1.412738733086185        0.3905630550545289    
     1.418214464609775        0.3852384190116633    
     1.423690196133365        0.3799807295222893    
     1.429165927656955        0.3747892968638122    
     1.434641659180544        0.3696634326866428    
     1.440117390704134        0.3646024502578616    
     1.445593122227724        0.3596056646929631    
     1.451068853751314        0.3546723931765823    
     1.456544585274904        0.3498019551723776    
     1.462020316798494        0.3449936726222769    
     1.467496048322084        0.3402468701357374    
     1.472971779845673        0.3355608751694064    
     1.478447511369263        0.3309350181972888    
     1.483923242892853        0.3263686328718558    
     1.489398974416443        0.3218610561767012    
     1.494874705940033        0.3174116285707024    
     1.500350437463623        0.3130196941240188    
     1.505826168987213        0.3086846006466120    
     1.511301900510803        0.3044056998091680    
     1.516777632034392        0.3001823472567692    
     1.522253363557982        0.2960139027158213    
     1.527729095081572        0.2918997300942878    
     1.533204826605162        0.2878391975754809    
     1.538680558128752        0.2838316777057619    
     1.544156289652342        0.2798765474763555    
     1.549632021175932        0.2759731883994579    
     1.555107752699521        0.2721209865788540    
     1.560583484223111        0.2683193327753736    
     1.566059215746701        0.2645676224672650    
     1.571534947270291        0.2608652559057024    
     1.577010678793881        0.2572116381657025    
     1.582486410317471        0.2536061791925543    
     1.587962141841061        0.2500482938439634    
     1.593437873364651        0.2465374019280767    
     1.598913604888240        0.2430729282376057    
     1.604389336411830        0.2396543025801458    
     1.609865067935420        0.2362809598048374    
     1.615340799459010        0.2329523398256158    
     1.620816530982600        0.2296678876411008    
     1.626292262506190        0.2264270533512895    
     1.631767994029780        0.2232292921711869    
     1.637243725553369        0.2200740644415517    
     1.642719457076959        0.2169608356368160    
     1.648195188600549        0.2138890763702271    
     1.653670920124139        0.2108582623966951    
     1.659146651647729        0.2078678746133540    
     1.664622383171319        0.2049173990573643    
     1.670098114694909        0.2020063268995359    
     1.675573846218499        0.1991341544407395    
     1.681049577742088        0.1963003831037567    
     1.686525309265678        0.1935045194200142    
     1.692001040789268        0.1907460750183511    
     1.697476772312858        0.1880245666113599    
     1.702952503836448        0.1853395159744853    
     1.708428235360038        0.1826904499460426    
     1.713903966883628        0.1800769003916827    
     1.719379698407217        0.1774984041853859    
     1.724855429930807        0.1749545031869913    
     1.730331161454397        0.1724447442362587    
     1.735806892977987        0.1699686791111237    
     1.741282624501577        0.1675258645208690    
     1.746758356025167        0.1651158620571943    
     1.752234087548757        0.1627382381565166    
     1.757709819072346        0.1603925641051612    
     1.763185550595936        0.1580784159863192    
     1.768661282119526        0.1557953746742410    
     1.774137013643116        0.1535430257887634    
     1.779612745166706        0.1513209596584877    
     1.785088476690296        0.1491287712929695    
     1.790564208213886        0.1469660603496518    
     1.796039939737476        0.1448324311008432    
     1.801515671261065        0.1427274923990523    
     1.806991402784655        0.1406508576421504    
     1.812467134308245        0.1386021447375106    
     1.817942865831835        0.1365809760665358    
     1.823418597355425        0.1345869784482952    
     1.828894328879015        0.1326197831023607    
     1.834370060402605        0.1306790256137618    
     1.839845791926194        0.1287643458937602    
     1.845321523449784        0.1268753881424494    
     1.850797254973374        0.1250118008097056    
     1.856272986496964        0.1231732365607817    
     1.861748718020554        0.1213593522349965    
     1.867224449544144        0.1195698088086186    
     1.872700181067734        0.1178042713628327    
     1.878175912591324        0.1160624090245132    
     1.883651644114913        0.1143438949451171    
     1.889127375638503        0.1126484062574195    
     1.894603107162093        0.1109756240187985    
     1.900078838685683        0.1093252332241005    
     1.905554570209273        0.1076969227199300    
     1.911030301732863        0.1060903851717852    
     1.916506033256453        0.1045053170291459    
     1.921981764780042        0.1029414184887319    
     1.927457496303632        0.1013983934557395    
     1.932933227827222        0.9987594950431211E-01
     1.938408959350812        0.9837379783847248E-01
     1.943884690874402        0.9689165325281131E-01
     1.949360422397992        0.9542923409358031E-01
     1.954836153921581        0.9398626222031234E-01
     1.960311885445172        0.9256246296735124E-01
     1.965787616968761        0.9115756510553522E-01
     1.971263348492351        0.8977130080403849E-01
     1.976739080015941        0.8840340559228542E-01
     1.982214811539531        0.8705361832206918E-01
     1.987690543063121        0.8572168112984992E-01
     1.993166274586711        0.8440733939925338E-01
     1.998642006110301        0.8311034172373152E-01
     2.004117737633890        0.8183043986943950E-01
     2.009593469157480        0.8056738873831451E-01
     2.015069200681070        0.7932094633137664E-01
     2.020544932204660        0.7809087371224327E-01
     2.026020663728250        0.7687693497086642E-01
     2.031496395251840        0.7567889718750706E-01
     2.036972126775430        0.7449653039694452E-01
     2.042447858299020        0.7332960755293806E-01
     2.047923589822609        0.7217790449291278E-01
     2.053399321346199        0.7104119990291104E-01
     2.058875052869789        0.6991927528279127E-01
     2.064350784393379        0.6881191491169837E-01
     2.069826515916969        0.6771890581377636E-01
     2.075302247440558        0.6664003772415138E-01
     2.080777978964148        0.6557510305518267E-01
     2.086253710487738        0.6452389686298074E-01
     2.091729442011328        0.6348621681420930E-01
     2.097205173534918        0.6246186315313467E-01
     2.102680905058508        0.6145063866896697E-01
     2.108156636582098        0.6045234866347203E-01
     2.113632368105688        0.5946680091887233E-01
     2.119108099629277        0.5849380566601053E-01
     2.124583831152867        0.5753317555279735E-01
     2.130059562676457        0.5658472561294074E-01
     2.135535294200047        0.5564827323495331E-01
     2.141011025723637        0.5472363813145980E-01
     2.146486757247227        0.5381064230875127E-01
     2.151962488770817        0.5290911003664518E-01
     2.157438220294407        0.5201886781861732E-01
     2.162913951817997        0.5113974436222186E-01
     2.168389683341586        0.5027157054979350E-01
     2.173865414865176        0.4941417940941369E-01
     2.179341146388766        0.4856740608617178E-01
     2.184816877912356        0.4773108781369548E-01
     2.190292609435946        0.4690506388597813E-01
     2.195768340959535        0.4608917562946192E-01
     2.201244072483125        0.4528326637540312E-01
     2.206719804006716        0.4448718143251647E-01
     2.212195535530305        0.4370076805988823E-01
     2.217671267053895        0.4292387544018029E-01
     2.223146998577485        0.4215635465307881E-01
     2.228622730101075        0.4139805864902665E-01
     2.234098461624665        0.4064884222322382E-01
     2.239574193148254        0.3990856198989218E-01
     2.245049924671844        0.3917707635682149E-01
     2.250525656195434        0.3845424550015172E-01
     2.256001387719024        0.3773993133943464E-01
     2.261477119242614        0.3703399751295287E-01
     2.266952850766204        0.3633630935329549E-01
     2.272428582289794        0.3564673386320531E-01
     2.277904313813384        0.3496513969165380E-01
     2.283380045336973        0.3429139711018715E-01
     2.288855776860563        0.3362537798951894E-01
     2.294331508384153        0.3296695577637206E-01
     2.299807239907743        0.3231600547057897E-01
     2.305282971431333        0.3167240360240239E-01
     2.310758702954923        0.3103602821011683E-01
     2.316234434478512        0.3040675881782579E-01
     2.321710166002103        0.2978447641351662E-01
     2.327185897525692        0.2916906342736649E-01
     2.332661629049282        0.2856040371025556E-01
     2.338137360572872        0.2795838251253059E-01
     2.343613092096462        0.2736288646299488E-01
     2.349088823620052        0.2677380354812316E-01
     2.354564555143642        0.2619102309151789E-01
     2.360040286667231        0.2561443573356119E-01
     2.365516018190821        0.2504393341130683E-01
     2.370991749714411        0.2447940933858683E-01
     2.376467481238001        0.2392075798633058E-01
     2.381943212761591        0.2336787506311559E-01
     2.387418944285181        0.2282065749590449E-01
     2.392894675808771        0.2227900341100695E-01
     2.398370407332361        0.2174281211524748E-01
     2.403846138855950        0.2121198407733346E-01
     2.409321870379540        0.2068642090944181E-01
     2.414797601903130        0.2016602534898574E-01
     2.420273333426720        0.1965070124058952E-01
     2.425749064950310        0.1914035351826060E-01
     2.431224796473900        0.1863488818775075E-01
     2.436700527997490        0.1813421230911864E-01
     2.442176259521080        0.1763823397947385E-01
     2.447651991044669        0.1714686231590552E-01
     2.453127722568259        0.1666000743860097E-01
     2.458603454091849        0.1617758045414638E-01
     2.464079185615439        0.1569949343900547E-01
     2.469554917139029        0.1522565942318545E-01
     2.475030648662619        0.1475599237412516E-01
     2.480506380186208        0.1429040719261783E-01
     2.485982111709798        0.1382882000757353E-01
     2.491457843233388        0.1337115043666403E-01
     2.496933574756978        0.1291732865603410E-01
     2.502409306280568        0.1246730762922110E-01
     2.507885037804158        0.1202107714532431E-01
     2.513360769327748        0.1157867559853096E-01
     2.518836500851338        0.1114019713473374E-01
     2.524312232374927        0.1070579372650228E-01
     2.529787963898517        0.1027567292488864E-01
     2.535263695422107        0.9850092478729901E-02
     2.540739426945697        0.9429353003167192E-02
     2.546215158469287        0.9013789673345136E-02
     2.551690889992877        0.8603763666736012E-02
     2.557166621516467        0.8199653847837792E-02
     2.562642353040057        0.7801849005580156E-02
     2.568118084563646        0.7410740818198071E-02
     2.573593816087236        0.7026717625329436E-02
     2.579069547610826        0.6650159023637425E-02
     2.584545279134416        0.6281431261866133E-02
     2.590021010658006        0.5920883387126411E-02
     2.595496742181596        0.5568844081161453E-02
     2.600972473705185        0.5225619119686874E-02
     2.606448205228776        0.4891489386871381E-02
     2.611923936752365        0.4566709378879277E-02
     2.617399668275955        0.4251506133817966E-02
     2.622875399799545        0.3946078529578026E-02
     2.628351131323135        0.3650596895347547E-02
     2.633826862846725        0.3365202886584054E-02
     2.639302594370315        0.3090009576604266E-02
     2.644778325893904        0.2825101720391285E-02
     2.650254057417494        0.2570536147323473E-02
     2.655729788941084        0.2326342238732571E-02
     2.661205520464674        0.2092522442625027E-02
     2.666681251988264        0.1869052769995792E-02
     2.672156983511854        0.1655883202219317E-02
     2.677632715035444        0.1452937911968742E-02
     2.683108446559034        0.1260115151209251E-02
     2.688584178082623        0.1077286569067609E-02
     2.694059909606213        0.9042955464775932E-03
     2.699535641129803        0.7409537718612427E-03
     2.705011372653393        0.5870344712817328E-03
     2.710487104176983        0.4422586870037024E-03
     2.715962835700573        0.3062651633535831E-03
     2.721438567224163        0.1785336727645747E-03
     2.726914298747753        0.5811587322289016E-04
     2.732390030271342         0.000000000000000    
  0  4  1  0  1.000000   #orbital l, n, z, is_polarized, population
 500    0.1613091195121724E-01     8.049325063657403     # npts, delta, cutoff
     0.000000000000000        0.5565500732078591    
    0.1613091195121724E-01    0.5566184903121281    
    0.3226182390243448E-01    0.5568604390922673    