<preamble>

<basis_specs>
===============================================================================
F                    Z=   9    Mass=  18.998        Charge= 0.17977+309
Lmxo=2 Lmxkb= 2    BasisType=split      Semic=F
L=0  Nsemic=0  Cnfigmx=2
          i=1  nzeta=2  polorb=0  (2s)
            splnorm:   0.15000    
               vcte:    40.000    
               rinn:    3.0634    
               qcoe:    0.0000    
               qyuk:    0.0000    
               qwid:   0.10000E-01
                rcs:    3.4004      2.0877    
            lambdas:    1.0000      1.0000    
L=1  Nsemic=0  Cnfigmx=2
          i=1  nzeta=2  polorb=1  (2p)  (to be polarized perturbatively)
            splnorm:   0.15000    
               vcte:    40.000    
               rinn:    3.8042    
               qcoe:    0.0000    
               qyuk:    0.0000    
               qwid:   0.10000E-01
                rcs:    4.2227      2.5701    
            lambdas:    1.0000      1.0000    
L=2  Nsemic=0  Cnfigmx=3
          i=1  nzeta=0  polorb=0  (3d)  (perturbative polarization orbital) (from 2p)
-------------------------------------------------------------------------------
L=0  Nkbl=1  erefs: 0.17977+309
L=1  Nkbl=1  erefs: 0.17977+309
L=2  Nkbl=1  erefs: 0.17977+309
===============================================================================
</basis_specs>

<pseudopotential_header>
 F  pb nrl pcec
 ONCVPSP-3.2017-10-31Hamann's oncvpsp                        
 2s 2.00  r= 1.31/2p 5.00  r= 1.46/3d 0.00  r= 1.60/                    2s:2p:
</pseudopotential_header>
</preamble>
F                             # Symbol
F                             # Label
    9                         # Atomic number
     7.00000000000                             # Valence charge
     18.9980000000        # Mass 
     80.4517380383        # Self energy 
   2   5                      # Lmax for basis, no. of nl orbitals 
   2   5                      # Lmax for projectors, no. of nl KB projectors
# PAOs:__________________________
  0  2  1  0  2.000000   #orbital l, n, z, is_polarized, population
 500    0.6814430412851481E-02     3.400400776012889     # npts, delta, cutoff
     0.000000000000000         1.854472925626498    
    0.6814430412851481E-02     1.854420747966824    
    0.1362886082570296E-01     1.854328952220710    
    0.2044329123855444E-01     1.854175886515116    
    0.2725772165140592E-01     1.853961402083184    
    0.3407215206425741E-01     1.853685300409387    
    0.4088658247710888E-01     1.853347328171566    
    0.4770101288996037E-01     1.852947176786999    
    0.5451544330281185E-01     1.852484482594737    
    0.6132987371566333E-01     1.851958827234433    
    0.6814430412851481E-01     1.851369738134905    
    0.7495873454136630E-01     1.850716689090012    
    0.8177316495421777E-01     1.849999100915495    
    0.8858759536706926E-01     1.849216342185661    
    0.9540202577992074E-01     1.848367730050508    
    0.1022164561927722         1.847452531134725    
    0.1090308866056237         1.846469962520363    
    0.1158453170184752         1.845419192815089    
    0.1226597474313267         1.844299343308057    
    0.1294741778441781         1.843109489215325    
    0.1362886082570296         1.841848661016768    
    0.1431030386698811         1.840515845886284    
    0.1499174690827326         1.839109989216966    
    0.1567318994955841         1.837629996242725    
    0.1635463299084355         1.836074733757620    
    0.1703607603212870         1.834443031933956    
    0.1771751907341385         1.832733686239852    
    0.1839896211469900         1.830945459456748    
    0.1908040515598415         1.829077083796915    
    0.1976184819726929         1.827127263120736    
    0.2044329123855444         1.825094675253061    
    0.2112473427983959         1.822977974397604    
    0.2180617732112474         1.820775793647849    
    0.2248762036240989         1.818486747592522    
    0.2316906340369504         1.816109435013230    
    0.2385050644498019         1.813642441671372    
    0.2453194948626533         1.811084343180919    
    0.2521339252755048         1.808433707963286    
    0.2589483556883563         1.805689100279826    
    0.2657627861012077         1.802849083337259    
    0.2725772165140593         1.799912222460602    
    0.2793916469269107         1.796877088327830    
    0.2862060773397622         1.793742260260129    
    0.2930205077526137         1.790506329560874    
    0.2998349381654652         1.787167902896332    
    0.3066493685783167         1.783725605710557    
    0.3134637989911681         1.780178085666496    
    0.3202782294040196         1.776524016105138    
    0.3270926598168711         1.772762099514076    
    0.3339070902297226         1.768891070996663    
    0.3407215206425740         1.764909701732609    
    0.3475359510554256         1.760816802420704    
    0.3543503814682770         1.756611226694231    
    0.3611648118811285         1.752291874499371    
    0.3679792422939800         1.747857695426944    
    0.3747936727068314         1.743307691987747    
    0.3816081031196830         1.738640922821730    
    0.3884225335325344         1.733856505831303    
    0.3952369639453859         1.728953621229287    
    0.4020513943582374         1.723931514491985    
    0.4088658247710888         1.718789499208180    
    0.4156802551839404         1.713526959815048    
    0.4224946855967918         1.708143354212289    
    0.4293091160096433         1.702638216246124    
    0.4361235464224948         1.697011158055089    
    0.4429379768353462         1.691261872270152    
    0.4497524072481978         1.685390134061916    
    0.4565668376610492         1.679395803028339    
    0.4633812680739007         1.673278824916891    
    0.4701956984867522         1.667039233175499    
    0.4770101288996037         1.660677150327470    
    0.4838245593124552         1.654192789165915    
    0.4906389897253066         1.647586453764075    
    0.4974534201381581         1.640858540298458    
    0.5042678505510096         1.634009537682406    
    0.5110822809638611         1.627040028008444    
    0.5178967113767126         1.619950686798413    
    0.5247111417895640         1.612742283061031    
    0.5315255722024155         1.605415679157401    
    0.5383400026152670         1.597971830475456    
    0.5451544330281185         1.590411784915165    
    0.5519688634409700         1.582736682187030    
    0.5587832938538214         1.574947752926906    
    0.5655977242666730         1.567046317630954    
    0.5724121546795244         1.559033785415158    
    0.5792265850923759         1.550911652604404    
    0.5860410155052274         1.542681501156597    
    0.5928554459180788         1.534344996928006    
    0.5996698763309304         1.525903887786511    
    0.6064843067437818         1.517360001579667    
    0.6132987371566333         1.508715244017120    
    0.6201131675694848         1.499971596239000    
    0.6269275979823362         1.491131112479737    
    0.6337420283951878         1.482195917555747    
    0.6405564588080392         1.473168204202989    
    0.6473708892208907         1.464050230344517    
    0.6541853196337422         1.454844316272076    
    0.6609997500465936         1.445552841751247    
    0.6678141804594452         1.436178243059397    
    0.6746286108722966         1.426723009965854    
    0.6814430412851481         1.417189682663731    
    0.6882574716979996         1.407580848662646    
    0.6950719021108511         1.397899139651490    
    0.7018863325237026         1.388147228340401    
    0.7087007629365540         1.378327825290676    
    0.7155151933494055         1.368443675741139    
    0.7223296237622570         1.358497556439424    
    0.7291440541751085         1.348492272486133    
    0.7359584845879600         1.338430654199415    
    0.7427729150008114         1.328315554007274    
    0.7495873454136629         1.318149843374583    
    0.7564017758265144         1.307936409771117    
    0.7632162062393659         1.297678153686598    
    0.7700306366522174         1.287377985698336    
    0.7768450670650688         1.277038823596464    
    0.7836594974779203         1.266663589571284    
    0.7904739278907718         1.256255207466798    
    0.7972883583036233         1.245816600103985    
    0.8041027887164748         1.235350686676752    
    0.8109172191293262         1.224860380223174    
    0.8177316495421777         1.214348585174051    
    0.8245460799550293         1.203818194980177    
    0.8313605103678807         1.193272089819553    
    0.8381749407807322         1.182713134385035    
    0.8449893711935836         1.172144175752534    
    0.8518038016064351         1.161568041329565    
    0.8586182320192867         1.150987536883391    
    0.8654326624321381         1.140405444647693    
    0.8722470928449896         1.129824521506412    
    0.8790615232578410         1.119247497252951    
    0.8858759536706925         1.108677072922694    
    0.8926903840835441         1.098115919196645    
    0.8995048144963955         1.087566674873518    
    0.9063192449092470         1.077031945407643    
    0.9131336753220984         1.066514301509843    
    0.9199481057349499         1.056016277808130    
    0.9267625361478015         1.045540371565281    
    0.9335769665606529         1.035089041450047    
    0.9403913969735044         1.024664706358754    
    0.9472058273863558         1.014269744284313    
    0.9540202577992074         1.003906491229305    
    0.9608346882120589        0.9935772401601719    
    0.9676491186249103        0.9832842399995787    
    0.9744635490377618        0.9730296946540428    
    0.9812779794506132        0.9628157620742428    
    0.9880924098634648        0.9526445533454395    
    0.9949068402763163        0.9425181318057811    
     1.001721270689168        0.9324385121903620    
     1.008535701102019        0.9224076597993248    
     1.015350131514871        0.9124274896882367    
     1.022164561927722        0.9024998658796508    
     1.028978992340574        0.8926266005947199    
     1.035793422753425        0.8828094535041449    
     1.042607853166277        0.8730501309979157    
     1.049422283579128        0.8633502854737823    
     1.056236713991979        0.8537115146447941    
     1.063051144404831        0.8441353608657405    
     1.069865574817683        0.8346233104798477    
     1.076680005230534        0.8251767931861239    
     1.083494435643386        0.8157971814292720    
     1.090308866056237        0.8064857898127670    
     1.097123296469088        0.7972438745376769    
     1.103937726881940        0.7880726328684862    
     1.110752157294791        0.7789732026285574    
     1.117566587707643        0.7699466617270536    
     1.124381018120494        0.7609940277201861    
     1.131195448533346        0.7521162574090999    
     1.138009878946197        0.7433142464772353    
     1.144824309359049        0.7345888291697518    
     1.151638739771900        0.7259407780180159    
     1.158453170184752        0.7173708036118767    
     1.165267600597603        0.7088795544226210    
     1.172082031010455        0.7004676166792647    
     1.178896461423306        0.6921355143011539    
     1.185710891836158        0.6838837088893220    
     1.192525322249009        0.6757125997793810    
     1.199339752661861        0.6676225241580486    
     1.206154183074712        0.6596137572459544    
     1.212968613487564        0.6516865125483791    
     1.219783043900415        0.6438409421762483    
     1.226597474313267        0.6360771372385539    
     1.233411904726118        0.6283951283080871    
     1.240226335138970        0.6207948859611605    
     1.247040765551821        0.6132763213926016    
     1.253855195964672        0.6058392871063679    
     1.260669626377524        0.5984835776822480    
     1.267484056790376        0.5912089306052762    
     1.274298487203227        0.5840150270615019    
     1.281112917616078        0.5769014932148764    
     1.287927348028930        0.5698679019389501    
     1.294741778441781        0.5629137729303276    
     1.301556208854633        0.5560385714042123    
     1.308370639267484        0.5492417108204809    
     1.315185069680336        0.5425225629834350    
     1.321999500093187        0.5358804706905620    
     1.328813930506039        0.5293147609181460    
     1.335628360918890        0.5228247562987404    
     1.342442791331742        0.5164097797821964    
     1.349257221744593        0.5100691529781477    
     1.356071652157445        0.5038021941889438    
     1.362886082570296        0.4976082193527017    
     1.369700512983148        0.4914865430775313    
     1.376514943395999        0.4854364790575247    
     1.383329373808851        0.4794573403709178    
     1.390143804221702        0.4735484398497498    
     1.396958234634554        0.4677090904368819    
     1.403772665047405        0.4619386055223307    
     1.410587095460257        0.4562362992674147    
     1.417401525873108        0.4506014868954131    
     1.424215956285960        0.4450334849839158    
     1.431030386698811        0.4395316117486057    
     1.437844817111662        0.4340951872697021    
     1.444659247524514        0.4287235337339936    
     1.451473677937365        0.4234159757189303    
     1.458288108350217        0.4181718403755000    
     1.465102538763069        0.4129904575583551    
     1.471916969175920        0.4078711601765700    
     1.478731399588771        0.4028132843251809    
     1.485545830001623        0.3978161693374081    
     1.492360260414474        0.3928791579320318    
     1.499174690827326        0.3880015964593299    
     1.505989121240177        0.3831828351509309    
     1.512803551653029        0.3784222280754890    
     1.519617982065880        0.3737191333019192    
     1.526432412478732        0.3690729130295343    
     1.533246842891583        0.3644829336921869    
     1.540061273304435        0.3599485660543882    
     1.546875703717286        0.3554691853016955    
     1.553690134130138        0.3510441711248444    
     1.560504564542989        0.3466729077978269    
     1.567318994955841        0.3423547842492260    
     1.574133425368692        0.3380891941276265    
     1.580947855781544        0.3338755358613725    
     1.587762286194395        0.3297132127128105    
     1.594576716607247        0.3256016328274173    
     1.601391147020098        0.3215402092779622    
     1.608205577432950        0.3175283601039283    
     1.615020007845801        0.3135655083464858    
     1.621834438258652        0.3096510820791618    
     1.628648868671504        0.3057845144344323    
     1.635463299084355        0.3019652436264522    
     1.642277729497207        0.2981927129700878    
     1.649092159910059        0.2944663708964367    
     1.655906590322910        0.2907856709650129    
     1.662721020735761        0.2871500718727579    
     1.669535451148613        0.2835590374600443    
     1.676349881561464        0.2800120367137889    
     1.683164311974316        0.2765085437678870    
     1.689978742387167        0.2730480379010440    
     1.696793172800019        0.2696300035321431    
     1.703607603212870        0.2662539302133431    
     1.710422033625722        0.2629193126209464    
     1.717236464038573        0.2596256505441747    
     1.724050894451425        0.2563724488720225    
     1.730865324864276        0.2531592175782182    
     1.737679755277128        0.2499854717044146    
     1.744494185689979        0.2468507313417643    
     1.751308616102831        0.2437545216109014    
     1.758123046515682        0.2406963726404331    
     1.764937476928534        0.2376758195440860    
     1.771751907341385        0.2346924023965256    
     1.778566337754237        0.2317456662078725    
     1.785380768167088        0.2288351608972219    
     1.792195198579940        0.2259604412650465    
     1.799009628992791        0.2231210669642237    
     1.805824059405643        0.2203166024707846    
     1.812638489818494        0.2175466170527903    
     1.819452920231345        0.2148106847408880    
     1.826267350644197        0.2121083842942729    
     1.833081781057048        0.2094392991686919    
     1.839896211469900        0.2068030174812199    
     1.846710641882751        0.2041991319781180    
     1.853525072295603        0.2016272400007999    
     1.860339502708454        0.1990869434501991    
     1.867153933121306        0.1965778487508694    
     1.873968363534157        0.1940995668139386    
     1.880782793947009        0.1916517130012561    
     1.887597224359860        0.1892339070891167    
     1.894411654772712        0.1868457732310862    
     1.901226085185563        0.1844869399205501    
     1.908040515598415        0.1821570399529362    
     1.914854946011266        0.1798557103878784    
     1.921669376424118        0.1775825925111921    
     1.928483806836969        0.1753373317966712    
     1.935298237249821        0.1731195778677437    
     1.942112667662672        0.1709289844590128    
     1.948927098075524        0.1687652093777158    
     1.955741528488375        0.1666279144651215    
     1.962555958901226        0.1645167655578872    
     1.969370389314078        0.1624314324493910    
     1.976184819726930        0.1603715888510658    
     1.982999250139781        0.1583369123537540    
     1.989813680552633        0.1563270843890947    
     1.996628110965484        0.1543417901909650    
     2.003442541378336        0.1523807187569868    
     2.010256971791187        0.1504435628101251    
     2.017071402204039        0.1485300187603764    
     2.023885832616890        0.1466397866665705    
     2.030700263029741        0.1447725701982981    
     2.037514693442593        0.1429280765979746    
     2.044329123855444        0.1411060166430504    
     2.051143554268296        0.1393061046083742    
     2.057957984681147        0.1375280582287350    
     2.064772415093999        0.1357715986615759    
     2.071586845506850        0.1340364504498907    
     2.078401275919702        0.1323223414853199    
     2.085215706332553        0.1306290029714528    
     2.092030136745405        0.1289561693873357    
     2.098844567158256        0.1273035784511901    
     2.105658997571108        0.1256709710843682    
     2.112473427983959        0.1240580913755306    
     2.119287858396810        0.1224646865450567    
     2.126102288809662        0.1208905069096944    
     2.132916719222514        0.1193353058474634    
     2.139731149635365        0.1177988397628036    
     2.146545580048217        0.1162808680519684    
     2.153360010461068        0.1147811530686864    
     2.160174440873920        0.1132994600900821    
     2.166988871286771        0.1118355572828590    
     2.173803301699623        0.1103892156697382    
     2.180617732112474        0.1089602090961861    
     2.187432162525325        0.1075483141974031    
     2.194246592938177        0.1061533103655889    
     2.201061023351028        0.1047749797174702    
     2.207875453763880        0.1034131070621288    
     2.214689884176731        0.1020674798690945    
     2.221504314589583        0.1007378882367205    
     2.228318745002434        0.9942412486082994E-01
     2.235133175415286        0.9812598500366468E-01
     2.241947605828137        0.9684326646310445E-01
     2.248762036240989        0.9557576954216655E-01
     2.255576466653840        0.9432329701878618E-01
     2.262390897066692        0.9308565411589698E-01
     2.269205327479543        0.9186264847178338E-01
     2.276019757892395        0.9065409011071406E-01
     2.282834188305246        0.8945979141385717E-01
     2.289648618718098        0.8827956709049337E-01
     2.296463049130949        0.8711323414950124E-01
     2.303277479543801        0.8596061187112078E-01
     2.310091909956652        0.8482152177899711E-01
     2.316906340369504        0.8369578761252194E-01
     2.323720770782355        0.8258323529944107E-01
     2.330535201195207        0.8148369292874087E-01
     2.337349631608058        0.8039699072380656E-01
     2.344164062020909        0.7932296101587806E-01
     2.350978492433761        0.7826143821776589E-01
     2.357792922846612        0.7721225879784320E-01
     2.364607353259464        0.7617526125430067E-01
     2.371421783672315        0.7515028608969940E-01
     2.378236214085167        0.7413717578577403E-01
     2.385050644498018        0.7313577477851287E-01
     2.391865074910870        0.7214592943348537E-01
     2.398679505323722        0.7116748802146915E-01
     2.405493935736573        0.7020030069431844E-01
     2.412308366149424        0.6924421946110555E-01
     2.419122796562276        0.6829909816449772E-01
     2.425937226975127        0.6736479245742991E-01
     2.432751657387979        0.6644115978001412E-01
     2.439566087800830        0.6552805933671142E-01
     2.446380518213682        0.6462535207373765E-01
     2.453194948626533        0.6373290065674579E-01
     2.460009379039385        0.6285056944875125E-01
     2.466823809452236        0.6197822448830152E-01
     2.473638239865088        0.6111573346788755E-01
     2.480452670277939        0.6026296571259791E-01
     2.487267100690790        0.5941979215903221E-01
     2.494081531103642        0.5858608533443892E-01
     2.500895961516493        0.5776171933610023E-01
     2.507710391929345        0.5694656981092570E-01
     2.514524822342196        0.5614051393532273E-01
     2.521339252755048        0.5534343039527189E-01
     2.528153683167900        0.5455519936664219E-01
     2.534968113580751        0.5377570249571328E-01
     2.541782543993603        0.5300482287994928E-01
     2.548596974406454        0.5224244504898842E-01
     2.555411404819306        0.5148845494585094E-01
     2.562225835232157        0.5074273990836821E-01
     2.569040265645008        0.5000518865081258E-01
     2.575854696057860        0.4927569124577597E-01
     2.582669126470711        0.4855413910623869E-01
     2.589483556883563        0.4784042496785833E-01
     2.596297987296414        0.4713444287144639E-01
     2.603112417709266        0.4643608814568151E-01
     2.609926848122117        0.4574525739001462E-01
     2.616741278534969        0.4506184845777666E-01
     2.623555708947820        0.4438576043948878E-01
     2.630370139360672        0.4371689364635279E-01
     2.637184569773523        0.4305514959397346E-01
     2.643999000186374        0.4240043098625177E-01
     2.650813430599226        0.4175264169947818E-01
     2.657627861012078        0.4111168676660245E-01
     2.664442291424929        0.4047747236170704E-01
     2.671256721837781        0.3984990578466786E-01
     2.678071152250632        0.3922889544599178E-01
     2.684885582663484        0.3861435085184462E-01
     2.691700013076335        0.3800618258923262E-01
     2.698514443489187        0.3740430231140233E-01
     2.705328873902038        0.3680862272339347E-01
     2.712143304314889        0.3621905756777104E-01
     2.718957734727741        0.3563552161053112E-01
     2.725772165140592        0.3505793062715913E-01
     2.732586595553444        0.3448620138889165E-01
     2.739401025966295        0.3392025164912000E-01
     2.746215456379147        0.3336000012996734E-01
     2.753029886791998        0.3280536650902106E-01
     2.759844317204850        0.3225627140622560E-01
     2.766658747617701        0.3171263637095131E-01
     2.773473178030553        0.3117438386920523E-01
     2.780287608443405        0.3064143727100420E-01
     2.787102038856256        0.3011372083788843E-01
     2.793916469269107        0.2959115971060039E-01
     2.800730899681959        0.2907367989691533E-01
     2.807545330094810        0.2856120825961241E-01
     2.814359760507662        0.2805367250459857E-01
     2.821174190920513        0.2755100116916010E-01
     2.827988621333365        0.2705312361037836E-01
     2.834803051746216        0.2655996999368043E-01
     2.841617482159068        0.2607147128152473E-01
     2.848431912571919        0.2558755922223142E-01
     2.855246342984771        0.2510816633893076E-01
     2.862060773397622        0.2463322591866849E-01
     2.868875203810473        0.2416267200163588E-01
     2.875689634223325        0.2369643937052737E-01
     2.882504064636176        0.2323446354003454E-01
     2.889318495049028        0.2277668074645043E-01
     2.896132925461879        0.2232302793742158E-01
     2.902947355874731        0.2187344276181698E-01
     2.909761786287583        0.2142786355971684E-01
     2.916576216700434        0.2098622935252942E-01
     2.923390647113286        0.2054847983321210E-01
     2.930205077526137        0.2011455535662874E-01
     2.937019507938988        0.1968439693001912E-01
     2.943833938351840        0.1925794620358006E-01
     2.950648368764691        0.1883514546116526E-01
     2.957462799177543        0.1841593761108673E-01
     2.964277229590394        0.1800026617703707E-01
     2.971091660003246        0.1758807528912412E-01
     2.977906090416097        0.1717930967500519E-01
     2.984720520828949        0.1677391465113396E-01
     2.991534951241800        0.1637183611410662E-01
     2.998349381654652        0.1597302053211172E-01
     3.005163812067503        0.1557741493649310E-01
     3.011978242480355        0.1518496691340417E-01
     3.018792672893206        0.1479562459556517E-01
     3.025607103306057        0.1440933665411993E-01
     3.032421533718909        0.1402605229057796E-01
     3.039235964131761        0.1364572122887314E-01
     3.046050394544612        0.1326829370750313E-01
     3.052864824957464        0.1289372047176386E-01
     3.059679255370315        0.1252195276608123E-01
     3.066493685783167        0.1215294232641929E-01
     3.073308116196018        0.1178664137279563E-01
     3.080122546608870        0.1142300260187666E-01
     3.086936977021721        0.1106197918107485E-01
     3.093751407434572        0.1070352482228734E-01
     3.100565837847424        0.1034759476215171E-01
     3.107380268260275        0.9994150107402752E-02
     3.114194698673127        0.9643167377319113E-02
     3.121009129085978        0.9294651449256506E-02
     3.127823559498830        0.8948647959161371E-02
     3.134637989911681        0.8605252048657679E-02
     3.141452420324533        0.8264612278661328E-02
     3.148266850737384        0.7926930014741021E-02
     3.155081281150236        0.7592455300466024E-02
     3.161895711563087        0.7261480386026369E-02
     3.168710141975939        0.6934331945837304E-02
     3.175524572388790        0.6611362787231385E-02
     3.182339002801642        0.6292943619168224E-02
     3.189153433214493        0.5979455253904326E-02
     3.195967863627345        0.5671281464712930E-02
     3.202782294040196        0.5368802615007557E-02
     3.209596724453048        0.5072390100381668E-02
     3.216411154865899        0.4782401596706246E-02
     3.223225585278751        0.4499177077400203E-02
     3.230040015691602        0.4223035545633369E-02
     3.236854446104453        0.3954272418500600E-02
     3.243668876517305        0.3693157497073227E-02
     3.250483306930156        0.3439933456660146E-02
     3.257297737343008        0.3194814794134122E-02
     3.264112167755859        0.2957987172851861E-02
     3.270926598168711        0.2729607109812212E-02
     3.277741028581562        0.2509801953847782E-02
     3.284555458994414        0.2298670107447068E-02
     3.291369889407265        0.2096281448005840E-02
     3.298184319820117        0.1902677906615626E-02
     3.304998750232969        0.1717874163540027E-02
     3.311813180645820        0.1541858418769134E-02
     3.318627611058671        0.1374593192573647E-02
     3.325442041471523        0.1216016103227237E-02
     3.332256471884374        0.1066040554160327E-02
     3.339070902297226        0.9245562353257932E-03
     3.345885332710077        0.7914292926403085E-03
     3.352699763122929        0.6665019222094904E-03
     3.359514193535780        0.5495909510956892E-03
     3.366328623948632        0.4404845470923951E-03
     3.373143054361483        0.3389352104865849E-03
     3.379957484774335        0.2446445535858026E-03
     3.386771915187186        0.1572269072919059E-03
     3.393586345600037        0.7610290424322879E-04
     3.400400776012889         0.000000000000000    
  0  2  2  0  0.000000   #orbital l, n, z, is_polarized, population
 500    0.4183718382712363E-02     2.087675472973469     # npts, delta, cutoff
     0.000000000000000         2.306981463818443    
    0.4183718382712363E-02     2.306931056696127    
    0.8367436765424726E-02     2.306881514783591    
    0.1255115514813709E-01     2.306798978129372    
    0.1673487353084945E-01     2.306683394936165    
    0.2091859191356182E-01     2.306534717092691    
    0.2510231029627418E-01     2.306352886645821    
    0.2928602867898654E-01     2.306137833890472    
    0.3346974706169890E-01     2.305889476916665    
    0.3765346544441127E-01     2.305607721484861    
    0.4183718382712363E-01     2.305292461003829    
    0.4602090220983599E-01     2.304943576549527    
    0.5020462059254836E-01     2.304560936904512    
    0.5438833897526072E-01     2.304144398610084    
    0.5857205735797308E-01     2.303693806027823    
    0.6275577574068544E-01     2.303208991409035    
    0.6693949412339781E-01     2.302689774971388    
    0.7112321250611017E-01     2.302135964982451    
    0.7530693088882254E-01     2.301547357849922    
    0.7949064927153490E-01     2.300923738218595    
    0.8367436765424727E-01     2.300264879073996    
    0.8785808603695962E-01     2.299570541852842    