<preamble>

<basis_specs>
===============================================================================
Fe                   Z=  26    Mass=  55.845        Charge= 0.17977+309
Lmxo=2 Lmxkb= 2    BasisType=split      Semic=T
L=0  Nsemic=1  Cnfigmx=4
          i=1  nzeta=1  polorb=0  (3s)  (semicore shell)
            splnorm:   0.15000    
               vcte:    40.000    
               rinn:    2.2400    
               qcoe:    0.0000    
               qyuk:    0.0000    
               qwid:   0.10000E-01
                rcs:    2.4864    
            lambdas:    1.0000    
          i=2  nzeta=2  polorb=0  (4s)  (to be polarized non-perturbatively)
            splnorm:   0.15000    
               vcte:    40.000    
               rinn:    6.3157    
               qcoe:    0.0000    
               qyuk:    0.0000    
               qwid:   0.10000E-01
                rcs:    7.0105      4.9720    
            lambdas:    1.0000      1.0000    
L=1  Nsemic=1  Cnfigmx=4
          i=1  nzeta=1  polorb=0  (3p)  (semicore shell)
            splnorm:   0.15000    
               vcte:    40.000    
               rinn:    2.4939    
               qcoe:    0.0000    
               qyuk:    0.0000    
               qwid:   0.10000E-01
                rcs:    2.7711    
            lambdas:    1.0000    
          i=2  nzeta=1  polorb=0  (4p)  (non-perturbative polarization shell)
            splnorm:   0.15000    
               vcte:    40.000    
               rinn:    6.3157    
               qcoe:    0.0000    
               qyuk:    0.0000    
               qwid:   0.10000E-01
                rcs:    7.0105    
            lambdas:    1.0000    
L=2  Nsemic=0  Cnfigmx=3
          i=1  nzeta=2  polorb=0  (3d)
            splnorm:   0.15000    
               vcte:    40.000    
               rinn:    3.9877    
               qcoe:    0.0000    
               qyuk:    0.0000    
               qwid:   0.10000E-01
                rcs:    4.4308      2.6700    
            lambdas:    1.0000      1.0000    
-------------------------------------------------------------------------------
L=0  Nkbl=2  erefs: 0.17977+309 0.17977+309
L=1  Nkbl=2  erefs: 0.17977+309 0.17977+309
L=2  Nkbl=1  erefs: 0.17977+309
===============================================================================
</basis_specs>

<pseudopotential_header>
 Fe pb nrl pcec
 ONCVPSP-3.2017-10-31Hamann's oncvpsp                        
 3s 2.00  r= 1.26/3p 6.00  r= 1.21/3d 6.00  r= 1.57/                    3s:3p:3d:4s:
</pseudopotential_header>
</preamble>
Fe                            # Symbol
Fe                            # Label
   26                         # Atomic number
     16.0000000000                             # Valence charge
     55.8450000000        # Mass 
     361.806439435        # Self energy 
   2   7                      # Lmax for basis, no. of nl orbitals 
   2   6                      # Lmax for projectors, no. of nl KB projectors
# PAOs:__________________________
  0  3  1  0  2.000000   #orbital l, n, z, is_polarized, population
 500    0.4982666075945770E-02     2.486350371896939     # npts, delta, cutoff
     0.000000000000000         2.166795788078677    
    0.4982666075945770E-02     2.166743583338445    
    0.9965332151891540E-02     2.166759799452342    
    0.1494799822783731E-01     2.166786780339073    
    0.1993066430378308E-01     2.166824312202060    
    0.2491333037972885E-01     2.166872130769689    
    0.2989599645567462E-01     2.166929902216779    
    0.3487866253162039E-01     2.166997220725245    
    0.3986132860756616E-01     2.167073608186716    
    0.4484399468351193E-01     2.167158514436015    
    0.4982666075945770E-01     2.167251317692974    
    0.5480932683540347E-01     2.167351325124210    
    0.5979199291134923E-01     2.167457773495096    
    0.6477465898729501E-01     2.167569829900051    
    0.6975732506324078E-01     2.167686592565716    
    0.7473999113918654E-01     2.167807091724002    
    0.7972265721513232E-01     2.167930290553181    
    0.8470532329107809E-01     2.168055086185559    
    0.8968798936702385E-01     2.168180310780538    
    0.9467065544296963E-01     2.168304732661921    
    0.9965332151891540E-01     2.168427057518372    
    0.1046359875948612         2.168545929665875    
    0.1096186536708069         2.168659933371052    
    0.1146013197467527         2.168767594234133    
    0.1195839858226985         2.168867380630341    
    0.1245666518986442         2.168957705208393    
    0.1295493179745900         2.169036926444771    
    0.1345319840505358         2.169103350252394    
    0.1395146501264816         2.169155231642194    
    0.1444973162024273         2.169190776436150    
    0.1494799822783731         2.169208143030222    
    0.1544626483543189         2.169205444205582    
    0.1594453144302646         2.169180748986484    
    0.1644279805062104         2.169132084543117    
    0.1694106465821562         2.169057438137691    
    0.1743933126581020         2.168954759111950    
    0.1793759787340477         2.168821960914316    
    0.1843586448099935         2.168656923164786    
    0.1893413108859393         2.168457493755645    
    0.1943239769618850         2.168221490986098    
    0.1993066430378308         2.167946705728773    
    0.2042893091137766         2.167630903626101    
    0.2092719751897223         2.167271827314497    
    0.2142546412656681         2.166867198674266    
    0.2192373073416139         2.166414721103063    
    0.2242199734175596         2.165912081810806    
    0.2292026394935054         2.165356954133788    
    0.2341853055694512         2.164746999865834    
    0.2391679716453969         2.164079871604219    
    0.2441506377213427         2.163353215108106    
    0.2491333037972885         2.162564671667223    
    0.2541159698732343         2.161711880478469    
    0.2590986359491800         2.160792481028122    
    0.2640813020251258         2.159804115477344    
    0.2690639681010716         2.158744431048605    
    0.2740466341770174         2.157611082410719    
    0.2790293002529631         2.156401734060066    
    0.2840119663289089         2.155114062695702    
    0.2889946324048546         2.153745759585936    
    0.2939772984808004         2.152294532924051    
    0.2989599645567462         2.150758110170756    
    0.3039426306326919         2.149134240381063    
    0.3089252967086377         2.147420696513192    
    0.3139079627845835         2.145615277717189    
    0.3188906288605293         2.143715811600926    
    0.3238732949364750         2.141720156471156    
    0.3288559610124208         2.139626203547361    
    0.3338386270883666         2.137431879146093    
    0.3388212931643124         2.135135146833572    
    0.3438039592402581         2.132734009544326    
    0.3487866253162039         2.130226511663678    
    0.3537692913921496         2.127610741071916    
    0.3587519574680954         2.124884831148043    
    0.3637346235440412         2.122046962730994    
    0.3687172896199870         2.119095366036304    
    0.3736999556959327         2.116028322526214    
    0.3786826217718785         2.112844166731250    
    0.3836652878478243         2.109541288021390    
    0.3886479539237701         2.106118132324953    
    0.3936306199997158         2.102573203793408    
    0.3986132860756616         2.098905066410365    
    0.4035959521516074         2.095112345543056    
    0.4085786182275531         2.091193729434685    
    0.4135612843034989         2.087147970636092    
    0.4185439503794446         2.082973887375218    
    0.4235266164553904         2.078670364862972    
    0.4285092825313362         2.074236356534128    
    0.4334919486072820         2.069670885221959    
    0.4384746146832277         2.064973044265410    
    0.4434572807591735         2.060141998547683    
    0.4484399468351193         2.055176985465178    
    0.4534226129110651         2.050077315825802    
    0.4584052789870108         2.044842374675747    
    0.4633879450629566         2.039471622053958    
    0.4683706111389024         2.033964593673538    
    0.4733532772148482         2.028320901529460    
    0.4783359432907939         2.022540234432022    
    0.4833186093667396         2.016622358465587    
    0.4883012754426854         2.010567117372244    
    0.4932839415186312         2.004374432860062    
    0.4982666075945770         1.998044304835776    
    0.5032492736705227         1.991576811561820    
    0.5082319397464685         1.984972109737595    
    0.5132146058224143         1.978230434505153    
    0.5181972718983601         1.971352099379436    
    0.5231799379743058         1.964337496103287    
    0.5281626040502516         1.957187094427610    
    0.5331452701261974         1.949901441817156    
    0.5381279362021432         1.942481163082411    
    0.5431106022780889         1.934926959938232    
    0.5480932683540347         1.927239610489951    
    0.5530759344299805         1.919419968647739    
    0.5580586005059263         1.911468963470107    
    0.5630412665818720         1.903387598437544    
    0.5680239326578178         1.895176950657331    
    0.5730065987337636         1.886838171815618    
    0.5779892648097092         1.878372507613545    
    0.5829719308856550         1.869781224140036    
    0.5879545969616008         1.861065683904221    
    0.5929372630375466         1.852227317903102    
    0.5979199291134923         1.843267624613468    
    0.6029025951894381         1.834188168751441    
    0.6078852612653839         1.824990579974508    
    0.6128679273413297         1.815676551527837    
    0.6178505934172754         1.806247838836639    
    0.6228332594932212         1.796706258046455    
    0.6278159255691670         1.787053684513295    
    0.6327985916451128         1.777292051245638    
    0.6377812577210585         1.767423347300290    
    0.6427639237970043         1.757449616134223    
    0.6477465898729501         1.747372953914494    
    0.6527292559488959         1.737195507788463    
    0.6577119220248416         1.726919474116511    
    0.6626945881007874         1.716547096669484    
    0.6676772541767332         1.706080664793187    
    0.6726599202526790         1.695522511542252    
    0.6776425863286247         1.684875011785685    
    0.6826252524045705         1.674140580286480    
    0.6876079184805163         1.663321669757698    
    0.6925905845564621         1.652420768897400    
    0.6975732506324078         1.641440400404828    
    0.7025559167083535         1.630383118980274    
    0.7075385827842993         1.619251509311068    
    0.7125212488602450         1.608048184046082    
    0.7175039149361908         1.596775781761189    
    0.7224865810121366         1.585436964918094    
    0.7274692470880824         1.574034417818909    
    0.7324519131640281         1.562570844558888    
    0.7374345792399739         1.551048966979687    
    0.7424172453159197         1.539471522625484    
    0.7473999113918655         1.527841262704286    
    0.7523825774678112         1.516160950056713    
    0.7573652435437570         1.504433357134524    
    0.7623479096197028         1.492661263991115    
    0.7673305756956486         1.480847456286131    
    0.7723132417715943         1.468994723306405    
    0.7772959078475401         1.457105856005271    
    0.7822785739234859         1.445183645062309    
    0.7872612399994317         1.433230878965519    
    0.7922439060753774         1.421250342117889    
    0.7972265721513232         1.409244812970218    
    0.8022092382272690         1.397217062182015    
    0.8071919043032147         1.385169850812275    
    0.8121745703791605         1.373105928541805    
    0.8171572364551063         1.361028031928752    
    0.8221399025310521         1.348938882698860    
    0.8271225686069978         1.336841186072028    
    0.8321052346829435         1.324737629126494    
    0.8370879007588893         1.312630879202103    
    0.8420705668348351         1.300523582343821    
    0.8470532329107808         1.288418361786813    
    0.8520358989867266         1.276317816484087    
    0.8570185650626724         1.264224519677866    
    0.8620012311386182         1.252141017515502    
    0.8669838972145639         1.240069827710996    
    0.8719665632905097         1.228013438252746    
    0.8769492293664555         1.215974306158389    
    0.8819318954424012         1.203954856277264    
    0.8869145615183470         1.191957480141138    
    0.8918972275942928         1.179984534863604    
    0.8968798936702386         1.168038342088600    
    0.9018625597461843         1.156121186988314    
    0.9068452258221301         1.144235317310740    
    0.9118278918980759         1.132382942477053    
    0.9168105579740217         1.120566232728798    
    0.9217932240499674         1.108787318325034    
    0.9267758901259132         1.097048288789163    
    0.9317585562018590         1.085351192205517    
    0.9367412222778048         1.073698034565219    
    0.9417238883537505         1.062090779161286    
    0.9467065544296963         1.050531346032365    
    0.9516892205056421         1.039021611454834    
    0.9566718865815877         1.027563407482679    
    0.9616545526575335         1.016158521534577    
    0.9666372187334793         1.004808696027629    
    0.9716198848094251        0.9935156280569173    
    0.9766025508853708        0.9822809691203073    
    0.9815852169613166        0.9711063248874960    
    0.9865678830372624        0.9599932550126430    
    0.9915505491132082        0.9489432729895348    
    0.9965332151891539        0.9379578460483924    
     1.001515881265100        0.9270383950933186    
     1.006498547341045        0.9161862946793098    
     1.011481213416991        0.9054028730278166    
     1.016463879492937        0.8946894120796837    
     1.021446545568883        0.8840471475843366    
     1.026429211644829        0.8734772692240464    
     1.031411877720774        0.8629809207720590    
     1.036394543796720        0.8525592002833742    
     1.041377209872666        0.8422131603169506    
     1.046359875948612        0.8319438081879865    
     1.051342542024557        0.8217521062490913    
     1.056325208100503        0.8116389721990177    
     1.061307874176449        0.8016052794176143    
     1.066290540252395        0.7916518573258119    
     1.071273206328341        0.7817794917691940    
     1.076255872404286        0.7719889254239626    
     1.081238538480232        0.7622808582239717    
     1.086221204556178        0.7526559478074212    
     1.091203870632124        0.7431148099821502    
     1.096186536708069        0.7336580192080207    
     1.101169202784015        0.7242861090952533    
     1.106151868859961        0.7149995729175618    
     1.111134534935907        0.7057988641386005    
     1.116117201011853        0.6966843969508373    
     1.121099867087798        0.6876565468254845    
     1.126082533163744        0.6787156510723020    
     1.131065199239690        0.6698620094084019    
     1.136047865315636        0.6610958845346611    
     1.141030531391581        0.6524175027188297    
     1.146013197467527        0.6438270543844503    
     1.150995863543473        0.6353246947045152    
     1.155978529619418        0.6269105441998051    
     1.160961195695364        0.6185846893382836    
     1.165943861771310        0.6103471831257593    
     1.170926527847256        0.6021980457337864    
     1.175909193923202        0.5941372650961900    
     1.180891859999147        0.5861647974955185    
     1.185874526075093        0.5782805681625010    
     1.190857192151039        0.5704844719039855    
     1.195839858226985        0.5627763738222463    
     1.200822524302930        0.5551561095394156    
     1.205805190378876        0.5476234860807213    
     1.210787856454822        0.5401782822752552    
     1.215770522530768        0.5328202498261295    
     1.220753188606714        0.5255491133628976    
     1.225735854682659        0.5183645717036101    
     1.230718520758605        0.5112662987045620    
     1.235701186834551        0.5042539414334236    
     1.240683852910497        0.4973271166510108    
     1.245666518986442        0.4904854123167193    
     1.250649185062388        0.4837284063436009    
     1.255631851138334        0.4770556809522264    
     1.260614517214280        0.4704668110493599    
     1.265597183290226        0.4639612979759754    
     1.270579849366171        0.4575385099475822    
     1.275562515442117        0.4511976616168643    
     1.280545181518063        0.4449378797753292    
     1.285527847594009        0.4387582728301082    
     1.290510513669954        0.4326579834020585    
     1.295493179745900        0.4266361778800382    
     1.300475845821846        0.4206920321352701    
     1.305458511897792        0.4148247159336318    
     1.310441177973737        0.4090333977303225    
     1.315423844049683        0.4033172476690121    
     1.320406510125629        0.3976754401985700    
     1.325389176201575        0.3921071535900674    
     1.330371842277521        0.3866115697350293    
     1.335354508353466        0.3811878743582679    
     1.340337174429412        0.3758352572016321    
     1.345319840505358        0.3705529122136053    
     1.350302506581304        0.3653400377258082    
     1.355285172657249        0.3601958366184814    
     1.360267838733195        0.3551195164758656    
     1.365250504809141        0.3501102897324336    
     1.370233170885087        0.3451673738103563    
     1.375215836961033        0.3402899912484357    
     1.380198503036978        0.3354773698228719    
     1.385181169112924        0.3307287426601101    
     1.390163835188870        0.3260433483421363    
     1.395146501264816        0.3214204310044614    
     1.400129167340761        0.3168592404270877    
     1.405111833416707        0.3123590321187902    
     1.410094499492653        0.3079190673949195    
     1.415077165568599        0.3035386134489713    
     1.420059831644544        0.2992169434182216    
     1.425042497720490        0.2949533364436696    
     1.430025163796436        0.2907470777244688    
     1.435007829872382        0.2865974585670322    
     1.439990495948327        0.2825037764292158    
     1.444973162024273        0.2784653349595971    
     1.449955828100219        0.2744814440320503    
     1.454938494176165        0.2705514197759710    
     1.459921160252110        0.2666745846022276    
     1.464903826328056        0.2628502672250101    
     1.469886492404002        0.2590778026796965    
     1.474869158479948        0.2553565323371583    
     1.479851824555894        0.2516858039143807    
     1.484834490631839        0.2480649714814381    
     1.489817156707785        0.2444933954656943    
     1.494799822783731        0.2409704426529074    
     1.499782488859677        0.2374954861862473    
     1.504765154935622        0.2340679055621623    
     1.509747821011568        0.2306870866177956    
     1.514730487087514        0.2273524214979231    
     1.519713153163460        0.2240633086951702    
     1.524695819239406        0.2208191530291382    
     1.529678485315351        0.2176193655867280    
     1.534661151391297        0.2144633637234789    
     1.539643817467243        0.2113505709979425    
     1.544626483543189        0.2082804172147159    
     1.549609149619134        0.2052523384848357    
     1.554591815695080        0.2022657773026292    
     1.559574481771026        0.1993201816991584    
     1.564557147846972        0.1964150060993248    
     1.569539813922918        0.1935497106630648    
     1.574522479998863        0.1907237618674850    
     1.579505146074809        0.1879366326781854    
     1.584487812150755        0.1851878016672301    
     1.589470478226701        0.1824767534075730    
     1.594453144302646        0.1798029782347272    
     1.599435810378592        0.1771659723778382    
     1.604418476454538        0.1745652379801098    
     1.609401142530484        0.1720002833847302    
     1.614383808606429        0.1694706219176282    
     1.619366474682375        0.1669757728373680    
     1.624349140758321        0.1645152610905110    
     1.629331806834267        0.1620886169979068    
     1.634314472910213        0.1596953769839173    
     1.639297138986158        0.1573350827627077    
     1.644279805062104        0.1550072815033270    
     1.649262471138050        0.1527115258341907    
     1.654245137213996        0.1504473737058012    
     1.659227803289941        0.1482143884488513    
     1.664210469365887        0.1460121386911110    
     1.669193135441833        0.1438401983068669    
     1.674175801517779        0.1416981463662258    
     1.679158467593724        0.1395855670890830    
     1.684141133669670        0.1375020497973859    
     1.689123799745616        0.1354471888669138    
     1.694106465821562        0.1334205836789072    
     1.699089131897507        0.1314218385714244    
     1.704071797973453        0.1294505627906352    
     1.709054464049399        0.1275063704420675    
     1.714037130125345        0.1255888804418147    
     1.719019796201291        0.1236977164677196    
     1.724002462277236        0.1218325069105652    
     1.728985128353182        0.1199928848252887    
     1.733967794429128        0.1181784878822686    
     1.738950460505074        0.1163889583186361    
     1.743933126581019        0.1146239428897017    
     1.748915792656965        0.1128830928204653    
     1.753898458732911        0.1111660637573092    
     1.758881124808857        0.1094725157197476    
     1.763863790884802        0.1078021130523670    
     1.768846456960748        0.1061545243769247    
     1.773829123036694        0.1045294225446775    
     1.778811789112640        0.1029264845888494    
     1.783794455188586        0.1013453916773088    
     1.788777121264531        0.9978582906547992E-01
     1.793759787340477        0.9824748604950155E-01
     1.798742453416423        0.9673005591963817E-01
     1.803725119492369        0.9523323591386398E-01
     1.808707785568314        0.9375672717177239E-01
     1.813690451644260        0.9230023468872052E-01
     1.818673117720206        0.9086346727034456E-01
     1.823655783796152        0.8944613748720302E-01
     1.828638449872098        0.8804796162981178E-01
     1.833621115948043        0.8666865966393328E-01
     1.838603782023989        0.8530795518625271E-01
     1.843586448099935        0.8396557538025790E-01
     1.848569114175881        0.8264125097246997E-01
     1.853551780251826        0.8133471618899946E-01
     1.858534446327772        0.8004570871242997E-01
     1.863517112403718        0.7877396963905976E-01
     1.868499778479664        0.7751924343638640E-01
     1.873482444555610        0.7628127790099443E-01
     1.878465110631555        0.7505982411674686E-01
     1.883447776707501        0.7385463641338015E-01
     1.888430442783447        0.7266547232535406E-01
     1.893413108859393        0.7149209255108764E-01
     1.898395774935338        0.7033426091253918E-01
     1.903378441011284        0.6919174431513432E-01
     1.908361107087230        0.6806431270805897E-01
     1.913343773163175        0.6695173904486020E-01
     1.918326439239121        0.6585379924442679E-01
     1.923309105315067        0.6477027215231410E-01
     1.928291771391013        0.6370093950243569E-01
     1.933274437466959        0.6264558587908216E-01
     1.938257103542904        0.6160399867930457E-01
     1.943239769618850        0.6057596807564964E-01
     1.948222435694796        0.5956128697924450E-01
     1.953205101770742        0.5855975100323514E-01
     1.958187767846687        0.5757115842657280E-01
     1.963170433922633        0.5659531015815208E-01
     1.968153099998579        0.5563200970129981E-01
     1.973135766074525        0.5468106311860432E-01
     1.978118432150471        0.5374227899709701E-01
     1.983101098226416        0.5281546841378512E-01
     1.988083764302362        0.5190044490152129E-01
     1.993066430378308        0.5099702441522504E-01
     1.998049096454254        0.5010502529842251E-01
     2.003031762530199        0.4922426825015592E-01
     2.008014428606145        0.4835457629221974E-01
     2.012997094682091        0.4749577473673010E-01
     2.017979760758037        0.4664769115403817E-01
     2.022962426833983        0.4581015534095209E-01
     2.027945092909929        0.4498299928932401E-01
     2.032927758985874        0.4416605715494713E-01
     2.037910425061820        0.4335916522678198E-01
     2.042893091137766        0.4256216189651049E-01
     2.047875757213711        0.4177488762839619E-01
     2.052858423289657        0.4099718492949692E-01
     2.057841089365603        0.4022889832017801E-01
     2.062823755441549        0.3946987430495469E-01
     2.067806421517494        0.3871996134365758E-01
     2.072789087593440        0.3797900982268418E-01
     2.077771753669386        0.3724687202700742E-01
     2.082754419745332        0.3652340211217595E-01
     2.087737085821277        0.3580845607671689E-01
     2.092719751897223        0.3510189173487752E-01
     2.097702417973169        0.3440356868936677E-01
     2.102685084049115        0.3371334830479820E-01
     2.107667750125060        0.3303109368107953E-01
     2.112650416201006        0.3235666962681212E-01
     2.117633082276952        0.3168994263287207E-01
     2.122615748352898        0.3103078085144485E-01
     2.127598414428844        0.3037905406550125E-01
     2.132581080504790        0.2973463366575964E-01
     2.137563746580735        0.2909739262664809E-01
     2.142546412656681        0.2846720548499515E-01
     2.147529078732627        0.2784394830165422E-01
     2.152511744808573        0.2722749865256972E-01
     2.157494410884518        0.2661773560029649E-01
     2.162477076960464        0.2601453967052433E-01
     2.167459743036410        0.2541779282188418E-01
     2.172442409112356        0.2482737844385779E-01
     2.177425075188301        0.2424318131633398E-01
     2.182407741264247        0.2366508759025281E-01
     2.187390407340193        0.2309298476597942E-01
     2.192373073416139        0.2252676167182259E-01
     2.197355739492084        0.2196630844300107E-01
     2.202338405568030        0.2141151650023623E-01
     2.207321071643976        0.2086227852851535E-01
     2.212303737719922        0.2031848845621733E-01
     2.217286403795867        0.1978004143444035E-01
     2.222269069871813        0.1924683381650705E-01
     2.227251735947759        0.1871876313774568E-01
     2.232234402023705        0.1819572809555598E-01
     2.237217068099651        0.1767762852965442E-01
     2.242199734175597        0.1716436540253231E-01
     2.247182400251542        0.1665584078012970E-01
     2.252165066327488        0.1615195781273479E-01
     2.257147732403434        0.1565262071754736E-01
     2.262130398479380        0.1515773484366078E-01
     2.267113064555325        0.1466720767546815E-01
     2.272095730631271        0.1418095332677208E-01
     2.277078396707217        0.1369890244725962E-01
     2.282061062783163        0.1322101571716935E-01
     2.287043728859108        0.1274729686182821E-01
     2.292026394935054        0.1227780196567509E-01
     2.297009061011000        0.1181264384725061E-01
     2.301991727086945        0.1135199178871679E-01
     2.306974393162891        0.1089606764982663E-01
     2.311957059238837        0.1044513955536570E-01
     2.316939725314783        0.9999514210319766E-02
     2.321922391390729        0.9559528660630690E-02
     2.326905057466675        0.9125542079014821E-02
     2.331887723542620        0.8697927955073063E-02
     2.336870389618566        0.8277066915985874E-02
     2.341853055694512        0.7863340294471938E-02
     2.346835721770458        0.7457124485794745E-02
     2.351818387846403        0.7058786086841034E-02
     2.356801053922349        0.6668677780221951E-02
     2.361783719998295        0.6287134909227284E-02
     2.366766386074241        0.5914472680997609E-02
     2.371749052150186        0.5550983932494711E-02
     2.376731718226132        0.5196937394517163E-02
     2.381714384302078        0.4852576391738781E-02
     2.386697050378024        0.4518117920506126E-02
     2.391679716453969        0.4193752050227074E-02
     2.396662382529915        0.3879641598162874E-02
     2.401645048605861        0.3575922030914189E-02
     2.406627714681807        0.3282701548546862E-02
     2.411610380757752        0.3000061308780936E-02
     2.416593046833698        0.2728055748496953E-02
     2.421575712909644        0.2466712957215297E-02
     2.426558378985590        0.2216035050997541E-02
     2.431541045061536        0.1975998483185393E-02
     2.436523711137482        0.1746554206666463E-02
     2.441506377213427        0.1527627563503877E-02
     2.446489043289373        0.1319117707124153E-02
     2.451471709365319        0.1120896228956985E-02
     2.456454375441265        0.9328043961501946E-03
     2.461437041517210        0.7546478400374563E-03
     2.466419707593156        0.5861862045910995E-03
     2.471402373669102        0.4271117234691213E-03
     2.476385039745048        0.2769994310586671E-03
     2.481367705820993        0.1351642367572149E-03
     2.486350371896939         0.000000000000000    
  0  4  1  0  2.000000   #orbital l, n, z, is_polarized, population
 500    0.1404903310482182E-01     7.010467519306087     # npts, delta, cutoff
     0.000000000000000        0.9558849419156006    
    0.1404903310482182E-01    0.9556753206005106    
    0.2809806620964364E-01    0.9551219291229921    