<preamble>

<basis_specs>
===============================================================================
Ge                   Z=  32    Mass=  72.630        Charge= 0.17977+309
Lmxo=2 Lmxkb= 2    BasisType=split      Semic=T
L=0  Nsemic=0  Cnfigmx=4
          i=1  nzeta=2  polorb=0  (4s)
            splnorm:   0.15000    
               vcte:    40.000    
               rinn:    5.0212    
               qcoe:    0.0000    
               qyuk:    0.0000    
               qwid:   0.10000E-01
                rcs:    5.5792      3.8468    
            lambdas:    1.0000      1.0000    
L=1  Nsemic=0  Cnfigmx=4
          i=1  nzeta=2  polorb=0  (4p)  (to be polarized non-perturbatively)
            splnorm:   0.15000    
               vcte:    40.000    
               rinn:    6.7743    
               qcoe:    0.0000    
               qyuk:    0.0000    
               qwid:   0.10000E-01
                rcs:    7.5195      5.3066    
            lambdas:    1.0000      1.0000    
L=2  Nsemic=1  Cnfigmx=4
          i=1  nzeta=1  polorb=0  (3d)  (semicore shell)
            splnorm:   0.15000    
               vcte:    40.000    
               rinn:    2.6674    
               qcoe:    0.0000    
               qyuk:    0.0000    
               qwid:   0.10000E-01
                rcs:    2.9608    
            lambdas:    1.0000    
          i=2  nzeta=1  polorb=0  (4d)  (non-perturbative polarization shell)
            splnorm:   0.15000    
               vcte:    40.000    
               rinn:    6.7743    
               qcoe:    0.0000    
               qyuk:    0.0000    
               qwid:   0.10000E-01
                rcs:    7.5195    
            lambdas:    1.0000    
-------------------------------------------------------------------------------
L=0  Nkbl=1  erefs: 0.17977+309
L=1  Nkbl=1  erefs: 0.17977+309
L=2  Nkbl=2  erefs: 0.17977+309 0.17977+309
===============================================================================
</basis_specs>

<pseudopotential_header>
 Ge pb nrl pcec
 ONCVPSP-3.2017-10-31Hamann's oncvpsp                        
 4s 2.00  r= 1.91/4p 2.00  r= 1.82/3d10.00  r= 1.91/                    3d:4s:4p:
</pseudopotential_header>
</preamble>
Ge                            # Symbol
Ge                            # Label
   32                         # Atomic number
     14.0000000000                             # Valence charge
     72.6300000000        # Mass 
     178.679846322        # Self energy 
   2   6                      # Lmax for basis, no. of nl orbitals 
   2   6                      # Lmax for projectors, no. of nl KB projectors
# PAOs:__________________________
  0  4  1  0  2.000000   #orbital l, n, z, is_polarized, population
 500    0.1118069039580442E-01     5.579164507506404     # npts, delta, cutoff
     0.000000000000000        0.2851605929634685E-01
    0.1118069039580442E-01    0.2861239256182507E-01
    0.2236138079160883E-01    0.2890327699940462E-01
    0.3354207118741324E-01    0.2938772241617178E-01
    0.4472276158321766E-01    0.3006518597323360E-01
    0.5590345197902208E-01    0.3093490960621697E-01
    0.6708414237482649E-01    0.3199592164817169E-01
    0.7826483277063091E-01    0.3324703901623986E-01
    0.8944552316643532E-01    0.3468686987805077E-01
    0.1006262135622397        0.3631381677806601E-01
    0.1118069039580442        0.3812608020895543E-01
    0.1229875943538486        0.4012166261261023E-01
    0.1341682847496530        0.4229837279410312E-01
    0.1453489751454574        0.4465383073046837E-01
    0.1565296655412618        0.4718547275475742E-01
    0.1677103559370662        0.4989055709445843E-01
    0.1788910463328706        0.5276616974210819E-01
    0.1900717367286751        0.5580923063473966E-01
    0.2012524271244795        0.5901650011774572E-01
    0.2124331175202839        0.6238458566779965E-01
    0.2236138079160883        0.6590994884866133E-01
    0.2347944983118927        0.6958891247302278E-01
    0.2459751887076971        0.7341766794301678E-01
    0.2571558791035016        0.7739228274161845E-01
    0.2683365694993060        0.8150870804692539E-01
    0.2795172598951104        0.8576278644120826E-01
    0.2906979502909148        0.9015025968667456E-01
    0.3018786406867192        0.9466677654007814E-01
    0.3130593310825237        0.9930790057865013E-01
    0.3242400214783280        0.1040691180103025    
    0.3354207118741325        0.1089458454416698    
    0.3466014022699369        0.1139334375783009    
    0.3577820926657413        0.1190271948321825    
    0.3689627830615457        0.1242223708127737    
    0.3801434734573501        0.1295141796788302    
    0.3913241638531545        0.1348978033295136    
    0.4025048542489589        0.1403683984145928    
    0.4136855446447634        0.1459211031449417    
    0.4248662350405678        0.1515510438860262    
    0.4360469254363722        0.1572533415186244    
    0.4472276158321766        0.1630231175526372    
    0.4584083062279810        0.1688554999815288    
    0.4695889966237854        0.1747456288666362    
    0.4807696870195899        0.1806886616423380    
    0.4919503774153943        0.1866797781348358    
    0.5031310678111987        0.1927141852890759    
    0.5143117582070031        0.1987871216001268    
    0.5254924486028075        0.2048938612470703    
    0.5366731389986119        0.2110297179292373    
    0.5478538293944164        0.2171900484063151    
    0.5590345197902208        0.2233702557455254    
    0.5702152101860252        0.2295657922807081    
    0.5813959005818296        0.2357721622896956    
    0.5925765909776340        0.2419849243978557    
    0.6037572813734384        0.2481996937171062    
    0.6149379717692428        0.2544121437310169    
    0.6261186621650473        0.2606180079378749    
    0.6372993525608517        0.2668130812647027    
    0.6484800429566561        0.2729932212662571    
    0.6596607333524606        0.2791543491239820    
    0.6708414237482649        0.2852924504606349    
    0.6820221141440693        0.2914035759870620    
    0.6932028045398737        0.2974838419980996    
    0.7043834949356782        0.3035294307350490    
    0.7155641853314826        0.3095365906324603    
    0.7267448757272870        0.3155016364671638    
    0.7379255661230915        0.3214209494275110    
    0.7491062565188958        0.3272909771207408    
    0.7602869469147002        0.3331082335361507    
    0.7714676373105046        0.3388692989814857    
    0.7826483277063091        0.3445708200094273    
    0.7938290181021135        0.3502095093506036    
    0.8050097084979179        0.3557821458687688    
    0.8161903988937224        0.3612855745531067    
    0.8273710892895267        0.3667167065616601    
    0.8385517796853311        0.3720725193289760    
    0.8497324700811356        0.3773500567499239    
    0.8609131604769400        0.3825464294505699    
    0.8720938508727444        0.3876588151557395    
    0.8832745412685488        0.3926844591615844    
    0.8944552316643533        0.3976206749202377    
    0.9056359220601576        0.4024648447421709    
    0.9168166124559620        0.4072144206204701    
    0.9279973028517665        0.4118669251798457    
    0.9391779932475709        0.4164199527517082    
    0.9503586836433753        0.4208711705751506    
    0.9615393740391798        0.4252183201222808    
    0.9727200644349842        0.4294592185448278    
    0.9839007548307885        0.4335917602375776    
    0.9950814452265929        0.4376139185127761    
     1.006262135622397        0.4415237473782812    
     1.017442826018202        0.4453193834109443    
     1.028623516414006        0.4489990477154321    
     1.039804206809811        0.4525610479577361    
     1.050984897205615        0.4560037804609637    
     1.062165587601420        0.4593257323508109    
     1.073346277997224        0.4625254837363879    
     1.084526968393028        0.4656017099118023    
     1.095707658788833        0.4685531835628085    
     1.106888349184637        0.4713787769624114    
     1.118069039580442        0.4740774641388203    
     1.129249729976246        0.4766483229985819    
     1.140430420372050        0.4790905373874168    
     1.151611110767855        0.4814033990715186    
     1.162791801163659        0.4835863096214252    
     1.173972491559464        0.4856387821811336    
     1.185153181955268        0.4875604431050821    
     1.196333872351072        0.4893510334459953    
     1.207514562746877        0.4910104102771572    
     1.218695253142681        0.4925385478328672    
     1.229875943538486        0.4939355384519242    
     1.241056633934290        0.4952015933094914    
     1.252237324330095        0.4963370429237347    
     1.263418014725899        0.4973423374243611    
     1.274598705121703        0.4982180465715089    
     1.285779395517508        0.4989648595145004    
     1.296960085913312        0.4995835842812831    
     1.308140776309117        0.5000751469904424    
     1.319321466704921        0.5004405907793563    
     1.330502157100725        0.5006810744433635    
     1.341682847496530        0.5007978707824129    
     1.352863537892334        0.5007923646527668    
     1.364044228288139        0.5006660507235273    
     1.375224918683943        0.5004205309389794    
     1.386405609079747        0.5000575116890791    
     1.397586299475552        0.4995788006926619    
     1.408766989871356        0.4989863035989331    
     1.419947680267161        0.4982820203144608    
     1.431128370662965        0.4974680410652268    
     1.442309061058770        0.4965465422029854    
     1.453489751454574        0.4955197817685780    
     1.464670441850378        0.4943900948260812    
     1.475851132246183        0.4931598885796685    
     1.487031822641987        0.4918316372924953    
     1.498212513037792        0.4904078770232238    
     1.509393203433596        0.4888912001950128    
     1.520573893829400        0.4872842500234227    
     1.531754584225205        0.4855897148163039    
     1.542935274621009        0.4838103223261317    
     1.554115965016814        0.4819488335739085    
     1.565296655412618        0.4800080368212045    
     1.576477345808422        0.4779907419842083    
     1.587658036204227        0.4758997744463770    
     1.598838726600031        0.4737379690615972    
     1.610019416995836        0.4715081641987876    
     1.621200107391640        0.4692131958287947    
     1.632380797787445        0.4668558917009825    
     1.643561488183249        0.4644390656131887    
     1.654742178579053        0.4619655118075447    
     1.665922868974858        0.4594379995146612    
     1.677103559370662        0.4568592676584924    
     1.688284249766467        0.4542320197571172    
     1.699464940162271        0.4515589190234776    
     1.710645630558076        0.4488425836985914    
     1.721826320953880        0.4460855826251494    
     1.733007011349684        0.4432904310848747    
     1.744187701745489        0.4404595869102602    
     1.755368392141293        0.4375954468893806    
     1.766549082537098        0.4347003434733441    
     1.777729772932902        0.4317765417946979    
     1.788910463328707        0.4288262370215064    
     1.800091153724511        0.4258515520273497    
     1.811271844120315        0.4228545354031328    
     1.822452534516120        0.4198371598686188    
     1.833633224911924        0.4168013209152679    
     1.844813915307729        0.4137488359475514    
     1.855994605703533        0.4106814436418117    
     1.867175296099337        0.4076008035801085    
     1.878355986495142        0.4045084969848460    
     1.889536676890946        0.4014060265987929    
     1.900717367286751        0.3982948158619578    
     1.911898057682555        0.3951762118355011    
     1.923078748078360        0.3920514922542104    
     1.934259438474164        0.3889218760009918    
     1.945440128869968        0.3857885328188054    
     1.956620819265773        0.3826525886340119    
     1.967801509661577        0.3795151284002238    
     1.978982200057382        0.3763771954793794    
     1.990162890453186        0.3732397922707876    
     2.001343580848991        0.3701038829337789    
     2.012524271244795        0.3669703939232304    
     2.023704961640599        0.3638402149299141    
     2.034885652036404        0.3607142003249594    
     2.046066342432208        0.3575931702932913    
     2.057247032828013        0.3544779118237409    
     2.068427723223817        0.3513691797281439    
     2.079608413619621        0.3482676976712754    
     2.090789104015426        0.3451741591513395    
     2.101969794411230        0.3420892284419478    
     2.113150484807035        0.3390135415129452    
     2.124331175202839        0.3359477069210772    
     2.135511865598643        0.3328923066784539    
     2.146692555994448        0.3298478970906478    
     2.157873246390252        0.3268150095741850    
     2.169053936786057        0.3237941514475188    
     2.180234627181861        0.3207858066995538    
     2.191415317577666        0.3177904367367574    
     2.202596007973470        0.3148084811057157    
     2.213776698369274        0.3118403581982929    
     2.224957388765079        0.3088864659322385    
     2.236138079160883        0.3059471824151354    
     2.247318769556688        0.3030228665870734    
     2.258499459952492        0.3001138588449249    
     2.269680150348296        0.2972204816490032    
     2.280860840744101        0.2943430401109194    
     2.292041531139905        0.2914818225650809    
     2.303222221535710        0.2886371011231852    
     2.314402911931514        0.2858091322122195    
     2.325583602327318        0.2829981570968252    
     2.336764292723123        0.2802044023868805    
     2.347944983118927        0.2774280805286143    
     2.359125673514732        0.2746693902834855    
     2.370306363910536        0.2719285171908792    
     2.381487054306341        0.2692056340179247    
     2.392667744702145        0.2665009011972583    
     2.403848435097949        0.2638144672488655    
     2.415029125493754        0.2611464691928946    
     2.426209815889558        0.2584970329477277    
     2.437390506285363        0.2558662737164231    
     2.448571196681167        0.2532542963641050    
     2.459751887076971        0.2506611957801576    
     2.470932577472776        0.2480870572328908    
     2.482113267868580        0.2455319567123795    
     2.493293958264385        0.2429959612619530    
     2.504474648660189        0.2404791293023079    
     2.515655339055993        0.2379815109432006    
     2.526836029451798        0.2355031482869962    
     2.538016719847602        0.2330440757235681    
     2.549197410243407        0.2306043202148489    
     2.560378100639211        0.2281839015718636    
     2.571558791035016        0.2257828327229983    
     2.582739481430820        0.2234011199739870    
     2.593920171826624        0.2210387632599254    
     2.605100862222429        0.2186957563898423    
     2.616281552618233        0.2163720872837468    
     2.627462243014038        0.2140677382016302    
     2.638642933409842        0.2117826859667107    
     2.649823623805646        0.2095169021809104    
     2.661004314201451        0.2072703534332067    
     2.672185004597255        0.2050430015030917    
     2.683365694993060        0.2028348035562020    
     2.694546385388864        0.2006457123341046    
     2.705727075784668        0.1984756763392501    
     2.716907766180473        0.1963246400125917    
     2.728088456576277        0.1941925439063307    
     2.739269146972082        0.1920793248516815    
     2.750449837367886        0.1899849161195375    
     2.761630527763691        0.1879092475784877    
     2.772811218159495        0.1858522458530345    
     2.783991908555299        0.1838138344566467    
     2.795172598951104        0.1817939339408939    
     2.806353289346908        0.1797924620171305    
     2.817533979742713        0.1778093337387040    
     2.828714670138517        0.1758444615931765    
     2.839895360534321        0.1738977556127877    
     2.851076050930126        0.1719691235183223    
     2.862256741325930        0.1700584708364161    
     2.873437431721735        0.1681657011146865    
     2.884618122117539        0.1662907157780528    
     2.895798812513343        0.1644334143784712    
     2.906979502909148        0.1625936944890972    
     2.918160193304952        0.1607714524603642    
     2.929340883700757        0.1589665830394485    
     2.940521574096561        0.1571789792518443    
     2.951702264492366        0.1554085327354040    
     2.962882954888170        0.1536551338713064    
     2.974063645283974        0.1519186718438829    
     2.985244335679779        0.1501990346978960    
     2.996425026075583        0.1484961094003087    
     3.007605716471388        0.1468097819237674    
     3.018786406867192        0.1451399373217049    
     3.029967097262996        0.1434864598008648    
     3.041147787658801        0.1418492327873231    
     3.052328478054605        0.1402281389913759    
     3.063509168450410        0.1386230604704675    
     3.074689858846214        0.1370338786897766    
     3.085870549242018        0.1354604745806667    
     3.097051239637823        0.1339027285970635    
     3.108231930033627        0.1323605207698023    
     3.119412620429432        0.1308337307590197    
     3.130593310825236        0.1293222379046503    
     3.141774001221041        0.1278259212750806    
     3.152954691616845        0.1263446597139982    
     3.164135382012649        0.1248783318855204    
     3.175316072408454        0.1234268163176575    
     3.186496762804258        0.1219899914441186    
     3.197677453200063        0.1205677356445589    
     3.208858143595867        0.1191599272833017    
     3.220038833991671        0.1177664447465682    
     3.231219524387476        0.1163871664782729    
     3.242400214783280        0.1150219710144348    
     3.253580905179085        0.1136707370162403    
     3.264761595574889        0.1123333433017918    
     3.275942285970693        0.1110096688765971    
     3.287122976366498        0.1096995929628378    
     3.298303666762302        0.1084029950274436    
     3.309484357158107        0.1071197548090172    
     3.320665047553911        0.1058497523436504    
     3.331845737949716        0.1045928679896615    
     3.343026428345520        0.1033489824512812    
     3.354207118741324        0.1021179768013325    
     3.365387809137129        0.1008997325029344    
     3.376568499532933        0.9969413143025062E-01
     3.387749189928738        0.9850105588832217E-01
     3.398929880324542        0.9732038863201259E-01
     3.410110570720347        0.9615201288409482E-01
     3.421291261116151        0.9499581235249915E-01
     3.432471951511955        0.9385167124675960E-01
     3.443652641907760        0.9271947429367944E-01
     3.454833332303564        0.9159910675224234E-01
     3.466014022699369        0.9049045442778911E-01
     3.477194713095173        0.8939340368549063E-01
     3.488375403490978        0.8830784146313685E-01
     3.499556093886782        0.8723365528326235E-01
     3.510736784282587        0.8617073326463259E-01
     3.521917474678391        0.8511896413311004E-01
     3.533098165074195        0.8407823723192408E-01
     3.544278855470000        0.8304844253135683E-01
     3.555459545865804        0.8202947063787185E-01
     3.566640236261609        0.8102121280270078E-01
     3.577820926657413        0.8002356092990522E-01
     3.589001617053218        0.7903640758393314E-01
     3.600182307449022        0.7805964599668530E-01
     3.611362997844826        0.7709317007410842E-01
     3.622543688240631        0.7613687440233206E-01
     3.633724378636435        0.7519065425336173E-01
     3.644905069032240        0.7425440559034668E-01
     3.656085759428044        0.7332802507243374E-01
     3.667266449823848        0.7241141005922394E-01
     3.678447140219653        0.7150445861484304E-01
     3.689627830615457        0.7060706951164121E-01
     3.700808521011262        0.6971914223353361E-01
     3.711989211407066        0.6884057697899362E-01
     3.723169901802870        0.6797127466371229E-01
     3.734350592198675        0.6711113692293479E-01
     3.745531282594479        0.6626006611348489E-01
     3.756711972990284        0.6541796531548896E-01
     3.767892663386088        0.6458473833380995E-01
     3.779073353781893        0.6376028969920138E-01
     3.790254044177697        0.6294452466919190E-01
     3.801434734573501        0.6213734922870944E-01
     3.812615424969306        0.6133867009045437E-01
     3.823796115365110        0.6054839469503249E-01
     3.834976805760915        0.5976643121085239E-01
     3.846157496156719        0.5899268853380122E-01
     3.857338186552523        0.5822707628670351E-01
     3.868518876948328        0.5746950481857115E-01
     3.879699567344132        0.5671988520365467E-01
     3.890880257739937        0.5597812924030072E-01
     3.902060948135741        0.5524414944962500E-01
     3.913241638531545        0.5451785907400673E-01
     3.924422328927350        0.5379917207541119E-01
     3.935603019323154        0.5308800313354838E-01
     3.946783709718959        0.5238426764387387E-01
     3.957964400114763        0.5168788171543602E-01
     3.969145090510568        0.5099876216857884E-01
     3.980325780906372        0.5031682653250495E-01
     3.991506471302176        0.4964199304270277E-01
     4.002687161697981        0.4897418063824667E-01
     4.013867852093785        0.4831330895897335E-01
     4.025048542489589        0.4765929834253886E-01
     4.036229232885394        0.4701206982136393E-01
     4.047409923281198        0.4637154511947094E-01
     4.058590613677003        0.4573764664921665E-01
     4.069771304072807        0.4511029750792618E-01
     4.080951994468611        0.4448942147443305E-01
     4.092132684864416        0.4387494300552883E-01
     4.103313375260220        0.4326678723232684E-01
     4.114494065656025        0.4266487995654354E-01
     4.125674756051829        0.4206914764670234E-01
     4.136855446447633        0.4147951743426327E-01
     4.148036136843438        0.4089591710968157E-01
     4.159216827239242        0.4031827511840098E-01
     4.170397517635047        0.3974652055678003E-01
     4.181578208030851        0.3918058316796200E-01
     4.192758898426656        0.3862039333768636E-01
     4.203939588822460        0.3806588209004627E-01
     4.215120279218264        0.3751698108319477E-01
     4.226300969614069        0.3697362260500453E-01
     4.237481660009873        0.3643573956868224E-01
     4.248662350405678        0.3590326550834025E-01
     4.259843040801482        0.3537613457453018E-01
     4.271023731197286        0.3485428152973598E-01
     4.282204421593091        0.3433764174383726E-01
     4.293385111988895        0.3382615118953809E-01
     4.304565802384700        0.3331974643776600E-01
     4.315746492780504        0.3281836465304412E-01
     4.326927183176308        0.3232194358883728E-01
     4.338107873572113        0.3183042158287683E-01
     4.349288563967917        0.3134373755246303E-01
     4.360469254363722        0.3086183098974908E-01
     4.371649944759526        0.3038464195700544E-01
     4.382830635155331        0.2991211108187288E-01
     4.394011325551135        0.2944417955259966E-01
     4.405192015946939        0.2898078911326735E-01
     4.416372706342744        0.2852188205900643E-01
     4.427553396738548        0.2806740123120160E-01
     4.438734087134353        0.2761729001269421E-01
     4.449914777530157        0.2717149232297590E-01
     4.461095467925961        0.2672995261337950E-01
     4.472276158321766        0.2629261586226638E-01
     4.483456848717570        0.2585942757021210E-01
     4.494637539113375        0.2543033375519449E-01
     4.505818229509179        0.2500528094778132E-01
     4.516998919904983        0.2458421618632059E-01
     4.528179610300788        0.2416708701213214E-01
     4.539360300696592        0.2375384146470782E-01
     4.550540991092397        0.2334442807691576E-01
     4.561721681488201        0.2293879587021128E-01
     4.572902371884006        0.2253689434985643E-01
     4.584083062279810        0.2213867350014440E-01
     4.595263752675614        0.2174408377963938E-01
     4.606444443071419        0.2135307611642349E-01
     4.617625133467223        0.2096560190335655E-01
     4.628805823863028        0.2058161299334698E-01
     4.639986514258832        0.2020106169463312E-01
     4.651167204654636        0.1982390076608414E-01
     4.662347895050441        0.1945008341251124E-01
     4.673528585446245        0.1907956327999510E-01
     4.684709275842050        0.1871229445122934E-01
     4.695889966237854        0.1834823144087619E-01
     4.707070656633658        0.1798732919094598E-01
     4.718251347029463        0.1762954306618999E-01
     4.729432037425267        0.1727482884951182E-01
     4.740612727821072        0.1692314273739828E-01
     4.751793418216876        0.1657444133536470E-01
     4.762974108612681        0.1622868165342683E-01
     4.774154799008485        0.1588582110158858E-01
     4.785335489404289        0.1554581748535020E-01
     4.796516179800094        0.1520862900123905E-01
     4.807696870195898        0.1487421423235524E-01
     4.818877560591703        0.1454253214394728E-01
     4.830058250987507        0.1421354207900522E-01
     4.841238941383311        0.1388720375387469E-01
     4.852419631779116        0.1356347725389688E-01
     4.863600322174920        0.1324232302906427E-01
     4.874781012570725        0.1292370188970690E-01
     4.885961702966529        0.1260757500219828E-01
     4.897142393362334        0.1229390388468405E-01
     4.908323083758138        0.1198265040283628E-01
     4.919503774153942        0.1167377676562658E-01
     4.930684464549747        0.1136724552112772E-01
     4.941865154945551        0.1106301955233892E-01
     4.953045845341356        0.1076106207303302E-01
     4.964226535737160        0.1046133662362978E-01
     4.975407226132964        0.1016380706709133E-01
     4.986587916528769        0.9868437584842033E-02
     4.997768606924573        0.9575192672716363E-02
     5.008949297320378        0.9284037136928340E-02
     5.020129987716182        0.8994936090066205E-02
     5.031310678111987        0.8707854947112360E-02
     5.042491368507791        0.8422759421483735E-02
     5.053672058903595        0.8139615521172259E-02
     5.064852749299400        0.7858389558241349E-02
     5.076033439695204        0.7579048493111612E-02
     5.087214130091009        0.7301562472314119E-02
     5.098394820486813        0.7025912687835917E-02
     5.109575510882618        0.6752104835161844E-02
     5.120756201278422        0.6480184317931218E-02
     5.131936891674227        0.6210248625261874E-02
     5.143117582070031        0.5942454279738155E-02
     5.154298272465835        0.5677017956167867E-02
     5.165478962861640        0.5414212702466738E-02
     5.176659653257444        0.5154360675096568E-02
     5.187840343653249        0.4897823773390667E-02
     5.199021034049053        0.4644993309984113E-02
     5.210201724444858        0.4396279557920114E-02
     5.221382414840662        0.4152101746739836E-02
     5.232563105236467        0.3912878865814835E-02
     5.243743795632271        0.3679021474426093E-02
     5.254924486028075        0.3450924606293774E-02
     5.266105176423880        0.3228961780890416E-02
     5.277285866819684        0.3013480085309741E-02
     5.288466557215489        0.2804796260935684E-02
     5.299647247611293        0.2603193712777706E-02
     5.310827938007098        0.2408920351781816E-02
     5.322008628402902        0.2222187178689525E-02
     5.333189318798707        0.2043167519925807E-02
     5.344370009194511        0.1871996830122546E-02
     5.355550699590315        0.1708772981210357E-02
     5.366731389986120        0.1553556963873171E-02
     5.377912080381924        0.1406373933080243E-02
     5.389092770777729        0.1267214535074911E-02
     5.400273461173533        0.1136036458329584E-02
     5.411454151569337        0.1012766155329679E-02
     5.422634841965142        0.8973006853238800E-03
     5.433815532360946        0.7895096299162311E-03
     5.444996222756751        0.6892370328456516E-03
     5.456176913152555        0.5963033111692612E-03
     5.467357603548360        0.5105070748645557E-03
     5.478538293944164        0.4316267707429773E-03
     5.489718984339968        0.3594220245206127E-03
     5.500899674735773        0.2936344699226494E-03
     5.512080365131577        0.2339876737229961E-03
     5.523261055527382        0.1801853549308385E-03
     5.534441745923186        0.1319060556606986E-03
     5.545622436318990        0.8878936519387694E-04
     5.556803126714795        0.5039811237708106E-04
     5.567983817110599        0.1607808903284927E-04
     5.579164507506404         0.000000000000000    
  0  4  2  0  0.000000   #orbital l, n, z, is_polarized, population
 500    0.7708956125812033E-02     3.846769106780204     # npts, delta, cutoff
     0.000000000000000       -0.3067796329461880    
    0.7708956125812033E-02   -0.3066929647299552    
    0.1541791225162407E-01   -0.3064292508838486    
    0.2312686837743610E-01   -0.3059898811750997    
    0.3083582450324813E-01   -0.3053750875057480    
    0.3854478062906017E-01   -0.3045851936990263    
    0.4625373675487220E-01   -0.3036206154199127    
    0.5396269288068423E-01   -0.3024818597643846    
    0.6167164900649626E-01   -0.3011695247217047    
    0.6938060513230830E-01   -0.2996842985334970    