<preamble>

<basis_specs>
===============================================================================
In                   Z=  49    Mass=  114.82        Charge= 0.17977+309
Lmxo=2 Lmxkb= 2    BasisType=split      Semic=T
L=0  Nsemic=0  Cnfigmx=5
          i=1  nzeta=2  polorb=0  (5s)
            splnorm:   0.15000    
               vcte:    40.000    
               rinn:    5.8646    
               qcoe:    0.0000    
               qyuk:    0.0000    
               qwid:   0.10000E-01
                rcs:    6.5097      4.6028    
            lambdas:    1.0000      1.0000    
L=1  Nsemic=0  Cnfigmx=5
          i=1  nzeta=2  polorb=0  (5p)  (to be polarized non-perturbatively)
            splnorm:   0.15000    
               vcte:    40.000    
               rinn:    8.1121    
               qcoe:    0.0000    
               qyuk:    0.0000    
               qwid:   0.10000E-01
                rcs:    9.0045      6.5358    
            lambdas:    1.0000      1.0000    
L=2  Nsemic=1  Cnfigmx=5
          i=1  nzeta=1  polorb=0  (4d)  (semicore shell)
            splnorm:   0.15000    
               vcte:    40.000    
               rinn:    3.4413    
               qcoe:    0.0000    
               qyuk:    0.0000    
               qwid:   0.10000E-01
                rcs:    3.8199    
            lambdas:    1.0000    
          i=2  nzeta=1  polorb=0  (5d)  (non-perturbative polarization shell)
            splnorm:   0.15000    
               vcte:    40.000    
               rinn:    8.1121    
               qcoe:    0.0000    
               qyuk:    0.0000    
               qwid:   0.10000E-01
                rcs:    9.0045    
            lambdas:    1.0000    
-------------------------------------------------------------------------------
L=0  Nkbl=1  erefs: 0.17977+309
L=1  Nkbl=1  erefs: 0.17977+309
L=2  Nkbl=2  erefs: 0.17977+309 0.17977+309
===============================================================================
</basis_specs>

<pseudopotential_header>
 In pb nrl pcec
 ONCVPSP-3.2017-10-31Hamann's oncvpsp                        
 5s 2.00  r= 2.11/5p 1.00  r= 2.38/4d10.00  r= 1.87/                    4d:5s:5p:
</pseudopotential_header>
</preamble>
In                            # Symbol
In                            # Label
   49                         # Atomic number
     13.0000000000                             # Valence charge
     114.820000000        # Mass 
     162.025233539        # Self energy 
   2   6                      # Lmax for basis, no. of nl orbitals 
   2   6                      # Lmax for projectors, no. of nl KB projectors
# PAOs:__________________________
  0  5  1  0  2.000000   #orbital l, n, z, is_polarized, population
 500    0.1304550994531408E-01     6.509709462711725     # npts, delta, cutoff
     0.000000000000000        0.6120071951254236E-01
    0.1304550994531408E-01    0.6125259947223191E-01
    0.2609101989062815E-01    0.6141210617202351E-01
    0.3913652983594224E-01    0.6167759831526227E-01
    0.5218203978125631E-01    0.6204854796283157E-01
    0.6522754972657038E-01    0.6252422002063834E-01
    0.7827305967188447E-01    0.6310367575958796E-01
    0.9131856961719854E-01    0.6378577749747447E-01
    0.1043640795625126        0.6456919428795926E-01
    0.1174095895078267        0.6545240856893342E-01
    0.1304550994531408        0.6643372372821316E-01
    0.1435006093984549        0.6751127254117337E-01
    0.1565461193437689        0.6868302643029366E-01
    0.1695916292890830        0.6994680549189954E-01
    0.1826371392343971        0.7130028923090743E-01
    0.1956826491797111        0.7274102794021908E-01
    0.2087281591250252        0.7426645465760613E-01
    0.2217736690703393        0.7587389762950442E-01
    0.2348191790156534        0.7756059320813084E-01
    0.2478646889609675        0.7932369910575440E-01
    0.2609101989062815        0.8116030792781831E-01
    0.2739557088515956        0.8306746090493528E-01
    0.2870012187969097        0.8504216174257417E-01
    0.3000467287422238        0.8708139050652793E-01
    0.3130922386875379        0.8918211746201418E-01
    0.3261377486328519        0.9134131678450301E-01
    0.3391832585781660        0.9355598006110419E-01
    0.3522287685234801        0.9582312950256258E-01
    0.3652742784687942        0.9813983078761256E-01
    0.3783197884141082        0.1005032054636139    
    0.3913652983594223        0.1029104428300230    
    0.4044108083047364        0.1053588112343357    
    0.4174563182500505        0.1078456687136468    
    0.4305018281953645        0.1103684729188964    
    0.4435473381406786        0.1129247902631851    
    0.4565928480859927        0.1155123042402171    
    0.4696383580313068        0.1181288228639547    
    0.4826838679766209        0.1207722851858902    
    0.4957293779219349        0.1234407668519559    
    0.5087748878672490        0.1261324846669480    
    0.5218203978125631        0.1288458001404174    
    0.5348659077578771        0.1315792219942155    
    0.5479114177031913        0.1343314076182921    
    0.5609569276485054        0.1371011634678138    
    0.5740024375938194        0.1398874444012439    
    0.5870479475391335        0.1426893519655902    
    0.6000934574844475        0.1455061316415958    
    0.6131389674297616        0.1483371690681484    
    0.6261844773750758        0.1511819852715942    
    0.6392299873203898        0.1540402309319068    
    0.6522754972657039        0.1569116797237557    
    0.6653210072110179        0.1597962207763955    
    0.6783665171563320        0.1626938503019175    
    0.6914120271016461        0.1656046624467442    
    0.7044575370469601        0.1685288394262426    
    0.7175030469922743        0.1714666410069989    
    0.7305485569375884        0.1744183934055490    
    0.7435940668829024        0.1773844776762102    
    0.7566395768282165        0.1803653176640596    
    0.7696850867735305        0.1833613676020359    
    0.7827305967188446        0.1863730994335965    
    0.7957761066641588        0.1894009899443045    
    0.8088216166094728        0.1924455077871243    
    0.8218671265547869        0.1955071004871127    
    0.8349126365001009        0.1985861815115393    
    0.8479581464454150        0.2016831174912562    
    0.8610036563907291        0.2047982156784190    
    0.8740491663360431        0.2079317117243574    
    0.8870946762813573        0.2110837578595751    
    0.9001401862266714        0.2142544115555122    
    0.9131856961719854        0.2174436247448246    
    0.9262312061172995        0.2206512336735676    
    0.9392767160626135        0.2238769494548374    
    0.9523222260079276        0.2271203493890960    
    0.9653677359532418        0.2303808691117059    
    0.9784132458985558        0.2336577956230040    
    0.9914587558438699        0.2369502612508261    
     1.004504265789184        0.2402572385894581    
     1.017549775734498        0.2435775364529380    
     1.030595285679812        0.2469097968741539    
     1.043640795625126        0.2502524931746413    
     1.056686305570440        0.2536039291232046    
     1.069731815515754        0.2569622391943544    
     1.082777325461068        0.2603253899310080    
     1.095822835406383        0.2636911824083006    
     1.108868345351697        0.2670572557886958    
     1.121913855297011        0.2704210919515965    
     1.134959365242325        0.2737800211734693    
     1.148004875187639        0.2771312288280982    
     1.161050385132953        0.2804717630699747    
     1.174095895078267        0.2837985434572264    
     1.187141405023581        0.2871083704649655    
     1.200186914968895        0.2903979358337350    
     1.213232424914209        0.2936638336927980    
     1.226277934859523        0.2969025723926341    
     1.239323444804837        0.3001105869769251    
     1.252368954750152        0.3032842522199624    
     1.265414464695465        0.3064198961518279    
     1.278459974640780        0.3095138139907707    
     1.291505484586094        0.3125622823996118    
     1.304550994531408        0.3155615739810068    
     1.317596504476722        0.3185079719249944    
     1.330642014422036        0.3213977847213416    
     1.343687524367350        0.3242273608491414    
     1.356733034312664        0.3269931033562337    
     1.369778544257978        0.3296914842419392    
     1.382824054203292        0.3323190585582825    
     1.395869564148606        0.3348724781465637    
     1.408915074093920        0.3373485049290744    
     1.421960584039234        0.3397440236786287    
     1.435006093984549        0.3420560541923215    
     1.448051603929863        0.3442817628001528    
     1.461097113875177        0.3464184731432652    
     1.474142623820491        0.3484636761620906    
     1.487188133765805        0.3504150392397521    
     1.500233643711119        0.3522704144519729    
     1.513279153656433        0.3540278458803489    
     1.526324663601747        0.3556855759527870    
     1.539370173547061        0.3572420507809694    
     1.552415683492375        0.3586959244713865    
     1.565461193437689        0.3600460623936362    
     1.578506703383003        0.3612915433963095    
     1.591552213328318        0.3624316609676081    
     1.604597723273631        0.3634659233451825    
     1.617643233218946        0.3643940525861992    
     1.630688743164260        0.3652159826152336    
     1.643734253109574        0.3659318562745892    
     1.656779763054888        0.3665420214078760    
     1.669825273000202        0.3670470260132438    
     1.682870782945516        0.3674476125093802    
     1.695916292890830        0.3677447111624619    
     1.708961802836144        0.3679394327266110    
     1.722007312781458        0.3680330603567816    
     1.735052822726772        0.3680270408559134    
     1.748098332672086        0.3679229753216002    
     1.761143842617400        0.3677226092633506    
     1.774189352562715        0.3674278222610367    
     1.787234862508029        0.3670406172391229    
     1.800280372453343        0.3665631094317328    
     1.813325882398657        0.3659975151295179    
     1.826371392343971        0.3653461402370099    
     1.839416902289285        0.3646113688236218    
     1.852462412234599        0.3637956515530020    
     1.865507922179913        0.3629014943171006    
     1.878553432125227        0.3619314470849126    
     1.891598942070541        0.3608880927138218    
     1.904644452015855        0.3597740369163479    
     1.917689961961169        0.3585918964793066    
     1.930735471906484        0.3573442904605666    
     1.943780981851797        0.3560338302037868    
     1.956826491797112        0.3546631105438098    
     1.969872001742426        0.3532347017341968    
     1.982917511687740        0.3517511416268361    
     1.995963021633054        0.3502149286576894    
     2.009008531578368        0.3486285155610475    
     2.022054041523682        0.3469943038294614    
     2.035099551468996        0.3453146389339652    
     2.048145061414310        0.3435918063286837    
     2.061190571359624        0.3418280282451013    
     2.074236081304938        0.3400254612903892    
     2.087281591250252        0.3381861948302610    
     2.100327101195567        0.3363122501434516    
     2.113372611140881        0.3344055804010813    
     2.126418121086195        0.3324680714451057    
     2.139463631031508        0.3305015432331651    
     2.152509140976823        0.3285077517710503    
     2.165554650922137        0.3264883911460159    
     2.178600160867451        0.3244450954750169    
     2.191645670812765        0.3223794408031493    
     2.204691180758079        0.3202929469336571    
     2.217736690703393        0.3181870792062315    
     2.230782200648707        0.3160632502342188    
     2.243827710594021        0.3139228215895125    
     2.256873220539335        0.3117671054387907    
     2.269918730484649        0.3095973661320937    
     2.282964240429964        0.3074148217445991    
     2.296009750375278        0.3052206455728120    
     2.309055260320592        0.3030159675854969    
     2.322100770265906        0.3008018758315252    
     2.335146280211220        0.2985794178034731    
     2.348191790156534        0.2963496017613569    
     2.361237300101848        0.2941133980129751    
     2.374282810047162        0.2918717401571844    
     2.387328319992476        0.2896255262853333    
     2.400373829937790        0.2873756201485751    
     2.413419339883104        0.2851228522838887    
     2.426464849828418        0.2828680211095695    
     2.439510359773732        0.2806118939812046    
     2.452555869719046        0.2783552082167998    
     2.465601379664361        0.2760986720883740    
     2.478646889609675        0.2738429657803423    
     2.491692399554989        0.2715887423209671    
     2.504737909500303        0.2693366284777088    
     2.517783419445617        0.2670872256305917    
     2.530828929390931        0.2648411106105408    
     2.543874439336245        0.2625988365168604    
     2.556919949281559        0.2603609335034952    
     2.569965459226873        0.2581279095418795    
     2.583010969172187        0.2559002511599153    
     2.596056479117502        0.2536784241533091    
     2.609101989062816        0.2514628742798286    
     2.622147499008129        0.2492540279240291    
     2.635193008953443        0.2470522927463543    
     2.648238518898758        0.2448580583077029    
     2.661284028844072        0.2426716966742738    
     2.674329538789386        0.2404935630049592    
     2.687375048734700        0.2383239961156826    
     2.700420558680014        0.2361633190299886    
     2.713466068625328        0.2340118395081277    
     2.726511578570642        0.2318698505608219    
     2.739557088515956        0.2297376309466861    
     2.752602598461270        0.2276154456518859    
     2.765648108406584        0.2255035463564584    
     2.778693618351899        0.2234021718838571    
     2.791739128297213        0.2213115486367964    
     2.804784638242527        0.2192318910190911    
     2.817830148187840        0.2171634018436806    
     2.830875658133155        0.2151062727274362    
     2.843921168078469        0.2130606844737243    
     2.856966678023783        0.2110268074424319    
     2.870012187969097        0.2090048019076046    
     2.883057697914411        0.2069948184050035    
     2.896103207859725        0.2049969980668427    
     2.909148717805039        0.2030114729468804    
     2.922194227750353        0.2010383663355691    
     2.935239737695667        0.1990777930629245    
     2.948285247640981        0.1971298597946530    
     2.961330757586296        0.1951946653170178    
     2.974376267531610        0.1932723008121441    
     2.987421777476924        0.1913628501268740    
     3.000467287422238        0.1894663900304326    
     3.013512797367552        0.1875829904652360    
     3.026558307312866        0.1857127147904568    
     3.039603817258180        0.1838556200153891    
     3.052649327203494        0.1820117570279766    
     3.065694837148808        0.1801811708151938    
     3.078740347094122        0.1783639006750382    
     3.091785857039437        0.1765599804241850    
     3.104831366984750        0.1747694385975232    
     3.117876876930064        0.1729922986411585    
     3.130922386875378        0.1712285791005175    
     3.143967896820693        0.1694782938014597    
     3.157013406766007        0.1677414520258301    
     3.170058916711321        0.1660180586817890    
     3.183104426656635        0.1643081144684281    
     3.196149936601949        0.1626116160352146    
     3.209195446547263        0.1609285561362963    
     3.222240956492577        0.1592589237802547    
     3.235286466437891        0.1576027043747236    
     3.248331976383205        0.1559598798662465    
     3.261377486328519        0.1543304288765673    
     3.274422996273834        0.1527143268336852    
     3.287468506219148        0.1511115460986665    
     3.300514016164461        0.1495220560896442    
     3.313559526109775        0.1479458234005750    
     3.326605036055090        0.1463828119162404    
     3.339650546000404        0.1448329829249610    
     3.352696055945718        0.1432962952262897    
     3.365741565891032        0.1417727052352848    
     3.378787075836346        0.1402621670848017    
     3.391832585781660        0.1387646327232902    
     3.404878095726974        0.1372800520093112    
     3.417923605672288        0.1358083728042070    
     3.430969115617602        0.1343495410610383    
     3.444014625562916        0.1329035009102159    
     3.457060135508231        0.1314701947433302    
     3.470105645453545        0.1300495632940800    
     3.483151155398859        0.1286415457158348    
     3.496196665344173        0.1272460796574410    
     3.509242175289487        0.1258631013367718    
     3.522287685234801        0.1244925456110132    
     3.535333195180115        0.1231343460452616    
     3.548378705125429        0.1217884349791121    
     3.561424215070743        0.1204547435904887    
     3.574469725016057        0.1191332019577694    
     3.587515234961371        0.1178237391198159    
     3.600560744906685        0.1165262831340420    
     3.613606254851999        0.1152407611326184    
     3.626651764797313        0.1139670993766724    
     3.639697274742628        0.1127052233088413    
     3.652742784687942        0.1114550576042054    
     3.665788294633256        0.1102165262193726    
     3.678833804578570        0.1089895524396787    
     3.691879314523884        0.1077740589254836    
     3.704924824469198        0.1065699677565792    
     3.717970334414512        0.1053772004746183    
     3.731015844359826        0.1041956781249870    
     3.744061354305140        0.1030253212969080    
     3.757106864250454        0.1018660501619450    
     3.770152374195769        0.1007177845113506    
     3.783197884141082        0.9958044379245945E-01
     3.796243394086396        0.9845394714356938E-01
     3.809288904031710        0.9733821342724014E-01
     3.822334413977025        0.9623316126326957E-01
     3.835379923922339        0.9513870906043263E-01
     3.848425433867653        0.9405477504554126E-01
     3.861470943812967        0.9298127729311692E-01
     3.874516453758281        0.9191813375495485E-01
     3.887561963703595        0.9086526228984793E-01
     3.900607473648909        0.8982258068084310E-01
     3.913652983594223        0.8879000666801132E-01
     3.926698493539537        0.8776745795782913E-01
     3.939744003484851        0.8675485227000596E-01
     3.952789513430166        0.8575210736989172E-01
     3.965835023375480        0.8475914105553885E-01
     3.978880533320793        0.8377587124472509E-01
     3.991926043266107        0.8280221584328049E-01
     4.004971553211422        0.8183809290047414E-01
     4.018017063156736        0.8088342059881021E-01
     4.031062573102050        0.7993811723672004E-01
     4.044108083047364        0.7900210135668741E-01
     4.057153592992678        0.7807529165388562E-01
     4.070199102937992        0.7715760699885844E-01
     4.083244612883306        0.7624896646842624E-01
     4.096290122828620        0.7534928936785740E-01
     4.109335632773934        0.7445849524322654E-01
     4.122381142719249        0.7357650389533722E-01
     4.135426652664562        0.7270323539117937E-01
     4.148472162609877        0.7183861007674476E-01
     4.161517672555191        0.7098254858937954E-01
     4.174563182500505        0.7013497186878113E-01
     4.187608692445819        0.6929580116742416E-01
     4.200654202391133        0.6846495806105228E-01
     4.213699712336447        0.6764236445873820E-01
     4.226745222281761        0.6682794261254899E-01
     4.239790732227075        0.6602161512679421E-01
     4.252836242172389        0.6522330496658416E-01
     4.265881752117703        0.6443293546604700E-01
     4.278927262063017        0.6365043033615338E-01
     4.291972772008331        0.6287571367215143E-01
     4.305018281953646        0.6210870996063313E-01
     4.318063791898959        0.6134934408622653E-01
     4.331109301844274        0.6059754133792980E-01
     4.344154811789588        0.5985322741509652E-01
     4.357200321734902        0.5911632843308685E-01
     4.370245831680216        0.5838677092859115E-01
     4.383291341625530        0.5766448186463584E-01
     4.396336851570844        0.5694938863528251E-01
     4.409382361516158        0.5624141907003212E-01
     4.422427871461472        0.5554050143793960E-01
     4.435473381406786        0.5484656445144740E-01
     4.448518891352101        0.5415953726994779E-01
     4.461564401297414        0.5347934950308724E-01
     4.474609911242728        0.5280593121381377E-01
     4.487655421188043        0.5213921292117704E-01
     4.500700931133356        0.5147912560288739E-01
     4.513746441078671        0.5082560069765298E-01
     4.526791951023985        0.5017857010728632E-01
     4.539837460969299        0.4953796619859673E-01
     4.552882970914613        0.4890372180506802E-01
     4.565928480859927        0.4827577022834317E-01
     4.578973990805241        0.4765404523950644E-01
     4.592019500750555        0.4703848108017843E-01
     4.605065010695870        0.4642901246341795E-01
     4.618110520641183        0.4582557457446355E-01
     4.631156030586498        0.4522810307129186E-01
     4.644201540531811        0.4463653408501575E-01
     4.657247050477126        0.4405080422011284E-01
     4.670292560422440        0.4347085055451103E-01
     4.683338070367753        0.4289661063952031E-01
     4.696383580313068        0.4232802249962053E-01
     4.709429090258382        0.4176502463210480E-01
     4.722474600203696        0.4120755600659410E-01
     4.735520110149010        0.4065555606442439E-01
     4.748565620094324        0.4010896471790525E-01
     4.761611130039638        0.3956772234945804E-01
     4.774656639984952        0.3903176981063264E-01
     4.787702149930267        0.3850104842102624E-01
     4.800747659875580        0.3797549996708410E-01
     4.813793169820895        0.3745506670080185E-01
     4.826838679766208        0.3693969133831625E-01
     4.839884189711523        0.3642931705841725E-01
     4.852929699656837        0.3592388750095919E-01
     4.865975209602150        0.3542334676518529E-01
     4.879020719547465        0.3492763940796205E-01
     4.892066229492779        0.3443671044193557E-01
     4.905111739438093        0.3395050533361482E-01
     4.918157249383407        0.3346897000137333E-01
     4.931202759328722        0.3299205081338386E-01
     4.944248269274035        0.3251969458547035E-01
     4.957293779219349        0.3205184857891492E-01
     4.970339289164664        0.3158846049818929E-01
     4.983384799109977        0.3112947848862993E-01
     4.996430309055292        0.3067485113404964E-01
     5.009475819000606        0.3022452745429793E-01
     5.022521328945920        0.2977845690277489E-01
     5.035566838891234        0.2933658936388774E-01
     5.048612348836548        0.2889887515046616E-01
     5.061657858781862        0.2846526500111667E-01
     5.074703368727176        0.2803571007755685E-01
     5.087748878672490        0.2761016196189583E-01
     5.100794388617804        0.2718857265387904E-01
     5.113839898563119        0.2677089456809625E-01
     5.126885408508432        0.2635708053114792E-01
     5.139930918453747        0.2594708377879513E-01
     5.152976428399061        0.2554085795306750E-01
     5.166021938344374        0.2513835709934664E-01
     5.179067448289689        0.2473953566341492E-01
     5.192112958235003        0.2434434848848737E-01
     5.205158468180317        0.2395275081222020E-01
     5.218203978125631        0.2356469826369318E-01
     5.231249488070945        0.2318014686037684E-01
     5.244294998016259        0.2279905300506621E-01
     5.257340507961573        0.2242137348281664E-01
     5.270386017906887        0.2204706545785392E-01
     5.283431527852201        0.2167608647047018E-01
     5.296477037797516        0.2130839443390923E-01
     5.309522547742829        0.2094394763122761E-01
     5.322568057688144        0.2058270471216471E-01
     5.335613567633458        0.2022462468999051E-01
     5.348659077578771        0.1986966693834827E-01
     5.361704587524086        0.1951779118808954E-01
     5.374750097469400        0.1916895752409442E-01
     5.387795607414714        0.1882312638210449E-01
     5.400841117360028        0.1848025854553755E-01
     5.413886627305342        0.1814031514230456E-01
     5.426932137250656        0.1780325764162211E-01
     5.439977647195970        0.1746904785081738E-01
     5.453023157141284        0.1713764791214743E-01
     5.466068667086598        0.1680902029960715E-01
     5.479114177031913        0.1648312781574247E-01
     5.492159686977226        0.1615993358846316E-01
     5.505205196922541        0.1583940106785313E-01
     5.518250706867855        0.1552149402299819E-01
     5.531296216813169        0.1520617653880585E-01
     5.544341726758483        0.1489341301283398E-01
     5.557387236703797        0.1458316815212393E-01
     5.570432746649111        0.1427540697003233E-01
     5.583478256594425        0.1397009478308399E-01
     5.596523766539740        0.1366719720782109E-01
     5.609569276485053        0.1336668015766262E-01
     5.622614786430367        0.1306850983977240E-01
     5.635660296375681        0.1277265275192651E-01
     5.648705806320995        0.1247907567940639E-01
     5.661751316266310        0.1218774569188902E-01
     5.674796826211623        0.1189863014035028E-01
     5.687842336156938        0.1161169665398046E-01
     5.700887846102252        0.1132691313709837E-01
     5.713933356047566        0.1104424776609475E-01
     5.726978865992880        0.1076366898637511E-01
     5.740024375938194        0.1048514550931652E-01
     5.753069885883508        0.1020864630923849E-01
     5.766115395828822        0.9934140620376493E-02
     5.779160905774137        0.9661597933880290E-02
     5.792206415719450        0.9390987994819458E-02
     5.805251925664765        0.9122280799200706E-02
     5.818297435610078        0.8855446591000798E-02
     5.831342945555392        0.8590455859208312E-02
     5.844388455500707        0.8327279334880911E-02
     5.857433965446020        0.8065887988220607E-02
     5.870479475391335        0.7806253025657509E-02
     5.883524985336649        0.7548345886949892E-02
     5.896570495281963        0.7292138242298969E-02
     5.909616005227277        0.7037601991209120E-02
     5.922661515172591        0.6784709358235357E-02
     5.935707025117905        0.6533434087464893E-02
     5.948752535063219        0.6283756684954187E-02
     5.961798045008534        0.6035675824728812E-02
     5.974843554953847        0.5789223610761661E-02
     5.987889064899162        0.5544479849380003E-02
     6.000934574844475        0.5301581603404986E-02
     6.013980084789790        0.5060726695178950E-02
     6.027025594735104        0.4822171638486870E-02
     6.040071104680417        0.4586225328267363E-02
     6.053116614625732        0.4353239976010487E-02
     6.066162124571046        0.4123600600145576E-02
     6.079207634516360        0.3897714078758239E-02
     6.092253144461674        0.3675998476400385E-02
     6.105298654406988        0.3458873108953557E-02
     6.118344164352302        0.3246749620387331E-02
     6.131389674297616        0.3040024208218863E-02
     6.144435184242931        0.2839071039922719E-02
     6.157480694188244        0.2644236840047354E-02
     6.170526204133559        0.2455836588448875E-02
     6.183571714078873        0.2274150246960394E-02
     6.196617224024187        0.2099420419847925E-02
     6.209662733969501        0.1931850848895569E-02
     6.222708243914814        0.1771605644275232E-02
     6.235753753860129        0.1618809155735429E-02
     6.248799263805443        0.1473546393810048E-02
     6.261844773750757        0.1335863916871342E-02
     6.274890283696071        0.1205771106357760E-02
     6.287935793641386        0.1083241758984561E-02
     6.300981303586699        0.9682159309080914E-03
     6.314026813532013        0.8606019744277772E-03
     6.327072323477328        0.7602787126284766E-03
     6.340117833422641        0.6670977010825001E-03
     6.353163343367956        0.5808855278963786E-03
     6.366208853313270        0.5014461031869687E-03
     6.379254363258584        0.4285628850868529E-03
     6.392299873203898        0.3620009788272943E-03
     6.405345383149212        0.3015090227681861E-03
     6.418390893094526        0.2468207285366465E-03
     6.431436403039840        0.1976558445396305E-03
     6.444481912985154        0.1537200954501361E-03
     6.457527422930468        0.1147031278877686E-03
     6.470572932875783        0.8027206884601882E-04
     6.483618442821096        0.5005366813184805E-04
     6.496663952766411        0.2357797839211543E-04
     6.509709462711725         0.000000000000000    
  0  5  2  0  0.000000   #orbital l, n, z, is_polarized, population
 500    0.9223999713777487E-02     4.602775857174966     # npts, delta, cutoff
     0.000000000000000       -0.1835896067378462    
    0.9223999713777487E-02   -0.1835385868118234    
    0.1844799942755497E-01   -0.1833776978643326    
    0.2767199914133246E-01   -0.1831097230411794    
    0.3689599885510995E-01   -0.1827349255763545    
    0.4611999856888743E-01   -0.1822536722171540    
    0.5534399828266492E-01   -0.1816664327786844    
    0.6456799799644240E-01   -0.1809737790322697    
    0.7379199771021989E-01   -0.1801763832878965    
    0.8301599742399739E-01   -0.1792750167145550    