<preamble>

<basis_specs>
===============================================================================
Ir                   Z=  77    Mass=  192.22        Charge= 0.17977+309
Lmxo=2 Lmxkb= 3    BasisType=split      Semic=T
L=0  Nsemic=1  Cnfigmx=6
          i=1  nzeta=1  polorb=0  (5s)  (semicore shell)
            splnorm:   0.15000    
               vcte:    40.000    
               rinn:    2.3958    
               qcoe:    0.0000    
               qyuk:    0.0000    
               qwid:   0.10000E-01
                rcs:    2.6620    
            lambdas:    1.0000    
          i=2  nzeta=2  polorb=0  (6s)  (to be polarized non-perturbatively)
            splnorm:   0.15000    
               vcte:    40.000    
               rinn:    5.7081    
               qcoe:    0.0000    
               qyuk:    0.0000    
               qwid:   0.10000E-01
                rcs:    6.3424      4.4664    
            lambdas:    1.0000      1.0000    
L=1  Nsemic=1  Cnfigmx=6
          i=1  nzeta=1  polorb=0  (5p)  (semicore shell)
            splnorm:   0.15000    
               vcte:    40.000    
               rinn:    2.8329    
               qcoe:    0.0000    
               qyuk:    0.0000    
               qwid:   0.10000E-01
                rcs:    3.1445    
            lambdas:    1.0000    
          i=2  nzeta=1  polorb=0  (6p)  (non-perturbative polarization shell)
            splnorm:   0.15000    
               vcte:    40.000    
               rinn:    5.7139    
               qcoe:    0.0000    
               qyuk:    0.0000    
               qwid:   0.10000E-01
                rcs:    6.3424    
            lambdas:    1.0000    
L=2  Nsemic=0  Cnfigmx=5
          i=1  nzeta=2  polorb=0  (5d)
            splnorm:   0.15000    
               vcte:    40.000    
               rinn:    4.6624    
               qcoe:    0.0000    
               qyuk:    0.0000    
               qwid:   0.10000E-01
                rcs:    5.1805      3.3834    
            lambdas:    1.0000      1.0000    
-------------------------------------------------------------------------------
L=0  Nkbl=2  erefs: 0.17977+309 0.17977+309
L=1  Nkbl=2  erefs: 0.17977+309 0.17977+309
L=2  Nkbl=1  erefs: 0.17977+309
L=3  Nkbl=1  erefs: 0.17977+309
===============================================================================
</basis_specs>

<pseudopotential_header>
 Ir pb nrl pcec
 ONCVPSP-3.2017-10-31Hamann's oncvpsp                        
 5s 2.00  r= 1.60/5p 6.00  r= 1.60/5d 7.00  r= 1.51/5f 0.00  r= 2.27/   5s:5p:5d:6s:
</pseudopotential_header>
</preamble>
Ir                            # Symbol
Ir                            # Label
   77                         # Atomic number
     17.0000000000                             # Valence charge
     192.220000000        # Mass 
     306.359764846        # Self energy 
   2   7                      # Lmax for basis, no. of nl orbitals 
   3   8                      # Lmax for projectors, no. of nl KB projectors
# PAOs:__________________________
  0  5  1  0  2.000000   #orbital l, n, z, is_polarized, population
 500    0.5334683037848837E-02     2.662006835886570     # npts, delta, cutoff
     0.000000000000000         1.137882573823352    
    0.5334683037848837E-02     1.137914182737414    
    0.1066936607569767E-01     1.138105431702413    
    0.1600404911354651E-01     1.138424059821040    
    0.2133873215139535E-01     1.138869811441442    
    0.2667341518924418E-01     1.139442347029806    
    0.3200809822709302E-01     1.140141233343239    
    0.3734278126494186E-01     1.140965942307042    
    0.4267746430279069E-01     1.141915851041048    
    0.4801214734063953E-01     1.142990242195243    
    0.5334683037848836E-01     1.144188304426392    
    0.5868151341633721E-01     1.145509132969438    
    0.6401619645418605E-01     1.146951730287935    
    0.6935087949203488E-01     1.148515006797067    
    0.7468556252988372E-01     1.150197781656143    
    0.8002024556773255E-01     1.151998783628723    
    0.8535492860558139E-01     1.153916652009067    
    0.9068961164343023E-01     1.155949937613831    
    0.9602429468127906E-01     1.158097103837993    
    0.1013589777191279         1.160356527774043    
    0.1066936607569767         1.162726501393434    
    0.1120283437948256         1.165205232789275    
    0.1173630268326744         1.167790847479219    
    0.1226977098705232         1.170481389767423    
    0.1280323929083721         1.173274824164461    
    0.1333670759462209         1.176169036863994    
    0.1387017589840698         1.179161837274970    
    0.1440364420219186         1.182250959608073    
    0.1493711250597674         1.185434064515120    
    0.1547058080976163         1.188708740780030    
    0.1600404911354651         1.192072507059986    
    0.1653751741733139         1.195522813675341    
    0.1707098572111628         1.199057044446782    
    0.1760445402490116         1.202672518578273    
    0.1813792232868605         1.206366492584185    
    0.1867139063247093         1.210136162259062    
    0.1920485893625581         1.213978664688394    
    0.1973832724004070         1.217891080298756    
    0.2027179554382558         1.221870434945633    
    0.2080526384761046         1.225913702037221    
    0.2133873215139535         1.230017804692489    
    0.2187220045518023         1.234179617931730    
    0.2240566875896511         1.238395970897823    
    0.2293913706275000         1.242663649106419    
    0.2347260536653488         1.246979396723204    
    0.2400607367031977         1.251339918866426    
    0.2453954197410465         1.255741883932809    
    0.2507301027788953         1.260181925944993    
    0.2560647858167442         1.264656646918599    
    0.2613994688545930         1.269162619247050    
    0.2667341518924418         1.273696388102203    
    0.2720688349302907         1.278254473848914    
    0.2774035179681395         1.282833374471578    
    0.2827382010059883         1.287429568010753    
    0.2880728840438372         1.292039515007895    
    0.2934075670816860         1.296659660956315    
    0.2987422501195349         1.301286438756394    
    0.3040769331573837         1.305916271173141    
    0.3094116161952326         1.310545573294163    
    0.3147462992330813         1.315170754986132    
    0.3200809822709302         1.319788223347822    
    0.3254156653087790         1.324394385157827    
    0.3307503483466279         1.328985649315050    
    0.3360850313844767         1.333558429270088    
    0.3414197144223255         1.338109145445648    
    0.3467543974601744         1.342634227644123    
    0.3520890804980232         1.347130117440509    
    0.3574237635358721         1.351593270558829    
    0.3627584465737209         1.356020159230285    
    0.3680931296115698         1.360407274531323    
    0.3734278126494185         1.364751128699903    
    0.3787624956872674         1.369048257428208    
    0.3840971787251162         1.373295222130098    
    0.3894318617629651         1.377488612181634    
    0.3947665448008139         1.381625047133030    
    0.4001012278386628         1.385701178890386    
    0.4054359108765116         1.389713693865650    
    0.4107705939143604         1.393659315093237    
    0.4161052769522093         1.397534804311773    
    0.4214399599900581         1.401336964009496    
    0.4267746430279069         1.405062639431858    
    0.4321093260657557         1.408708720549913    
    0.4374440091036046         1.412272143988116    
    0.4427786921414534         1.415749894910202    
    0.4481133751793023         1.419139008861848    
    0.4534480582171511         1.422436573568876    
    0.4587827412550000         1.425639730689762    
    0.4641174242928488         1.428745677521312    
    0.4694521073306976         1.431751668656375    
    0.4747867903685465         1.434655017592502    
    0.4801214734063953         1.437453098290538    
    0.4854561564442441         1.440143346682146    
    0.4907908394820930         1.442723262125351    
    0.4961255225199418         1.445190408807180    
    0.5014602055577907         1.447542417092586    
    0.5067948885956395         1.449776984818851    
    0.5121295716334884         1.451891878534730    
    0.5174642546713372         1.453884934683635    
    0.5227989377091860         1.455754060730239    
    0.5281336207470348         1.457497236229879    
    0.5334683037848836         1.459112513840246    
    0.5388029868227325         1.460598020274848    
    0.5441376698605813         1.461951957197844    
    0.5494723528984302         1.463172602059823    
    0.5548070359362790         1.464258308874222    
    0.5601417189741279         1.465207508934085    
    0.5654764020119767         1.466018711468973    
    0.5708110850498255         1.466690504241776    
    0.5761457680876744         1.467221554085368    
    0.5814804511255232         1.467610607379007    
    0.5868151341633721         1.467856490464447    
    0.5921498172012208         1.467958110001809    
    0.5974845002390697         1.467914453265277    
    0.6028191832769185         1.467724588378774    
    0.6081538663147674         1.467387664491764    
    0.6134885493526162         1.466902911895430    
    0.6188232323904651         1.466269642079540    
    0.6241579154283139         1.465487247730266    
    0.6294925984661627         1.464555202669398    
    0.6348272815040116         1.463473061735334    
    0.6401619645418604         1.462240460606361    
    0.6454966475797093         1.460857115566714    
    0.6508313306175580         1.459322823216004    
    0.6561660136554069         1.457637460122609    
    0.6615006966932557         1.455800982421713    
    0.6668353797311046         1.453813425358669    
    0.6721700627689534         1.451674902778428    
    0.6775047458068023         1.449385606561859    
    0.6828394288446511         1.446945806009737    
    0.6881741118824999         1.444355847175307    
    0.6935087949203488         1.441616152146297    
    0.6988434779581976         1.438727218277362    
    0.7041781609960465         1.435689617373912    
    0.7095128440338953         1.432503994828353    
    0.7148475270717441         1.429171068709795    
    0.7201822101095929         1.425691628808310    
    0.7255168931474418         1.422066535634861    
    0.7308515761852906         1.418296719378055    
    0.7361862592231395         1.414383178818905    
    0.7415209422609883         1.410326980204785    
    0.7468556252988371         1.406129256083848    
    0.7521903083366860         1.401791204101156    
    0.7575249913745348         1.397314085757806    
    0.7628596744123837         1.392699225134367    
    0.7681943574502325         1.387948007579964    
    0.7735290404880814         1.383061878472766    
    0.7788637235259301         1.378042341645409    
    0.7841984065637790         1.372890957946882    
    0.7895330896016278         1.367609344052078    
    0.7948677726394767         1.362199170882615    
    0.8002024556773255         1.356662162118846    
    0.8055371387151743         1.351000092687373    
    0.8108718217530232         1.345214787225498    
    0.8162065047908720         1.339308118524098    
    0.8215411878287209         1.333282005950384    
    0.8268758708665697         1.327138413852046    
    0.8322105539044186         1.320879349944240    
    0.8375452369422673         1.314506863680946    
    0.8428799199801162         1.308023044612180    
    0.8482146030179650         1.301430020728538    
    0.8535492860558138         1.294729956794566    
    0.8588839690936627         1.287925052672481    
    0.8642186521315115         1.281017541637689    
    0.8695533351693604         1.274009688687601    
    0.8748880182072092         1.266903788845213    
    0.8802227012450581         1.259702165458928    
    0.8855573842829069         1.252407168500064    
    0.8908920673207558         1.245021172859497    
    0.8962267503586046         1.237546576644879    
    0.9015614333964534         1.229985799479838    
    0.9068961164343022         1.222341280806568    
    0.9122307994721510         1.214615478193205    
    0.9175654825099999         1.206810865647343    
    0.9229001655478487         1.198929931937061    
    0.9282348485856976         1.190975178920775    
    0.9335695316235464         1.182949119887222    
    0.9389042146613953         1.174854277906861    
    0.9442388976992441         1.166693184195989    
    0.9495735807370930         1.158468376494758    
    0.9549082637749418         1.150182397460343    
    0.9602429468127907         1.141837793076396    
    0.9655776298506394         1.133437111080022    
    0.9709123128884882         1.124982899407320    
    0.9762469959263371         1.116477704658646    
    0.9815816789641859         1.107924070584619    
    0.9869163620020348         1.099324536593939    
    0.9922510450398836         1.090681636284000    
    0.9975857280777325         1.081997895995266    
     1.002920411115581         1.073275833390344    
     1.008255094153430         1.064517956058644    
     1.013589777191279         1.055726760147531    
     1.018924460229128         1.046904729020729    
     1.024259143266977         1.038054331944819    
     1.029593826304825         1.029178022804507    
     1.034928509342674         1.020278238847502    
     1.040263192380523         1.011357399459569    
     1.045597875418372         1.002417904970436    
     1.050932558456221        0.9934621354911561    
     1.056267241494070        0.9844924497834354    
     1.061601924531919        0.9755111841615374    
     1.066936607569767        0.9665206514271403    
     1.072271290607616        0.9575231398376592    
     1.077605973645465        0.9485209121083692    
     1.082940656683314        0.9395162044487461    
     1.088275339721163        0.9305112256333210    
     1.093610022759012        0.9215081561073204    
     1.098944705796860        0.9125091471273141    
     1.104279388834709        0.9035163199370595    
     1.109614071872558        0.8945317649787636    
     1.114948754910407        0.8855575411398374    
     1.120283437948256        0.8765956750352121    
     1.125618120986104        0.8676481603252651    
     1.130952804023953        0.8587169570693481    
     1.136287487061802        0.8498039911149072    
     1.141622170099651        0.8409111535221070    
     1.146956853137500        0.8320403000238313    
     1.152291536175349        0.8231932505209351    
     1.157626219213198        0.8143717886125541    
     1.162960902251046        0.8055776611612455    
     1.168295585288895        0.7968125778927044    
     1.173630268326744        0.7880782110297928    
     1.178964951364593        0.7793761949605217    
     1.184299634402442        0.7707081259396622    
     1.189634317440291        0.7620755618235976    
     1.194969000478139        0.7534800218379711    
     1.200303683515988        0.7449229863777443    
     1.205638366553837        0.7364058968391163    
     1.210973049591686        0.7279301554828537    
     1.216307732629535        0.7194971253285213    
     1.221642415667384        0.7111081300789616    
     1.226977098705232        0.7027644540745712    
     1.232311781743081        0.6944673422766933    
     1.237646464780930        0.6862180002794825    
     1.242981147818779        0.6780175943496911    
     1.248315830856628        0.6698672514936116    
     1.253650513894477        0.6617680595505193    
     1.258985196932325        0.6537210673119926    
     1.264319879970174        0.6457272846662406    
     1.269654563008023        0.6377876827668052    
     1.274989246045872        0.6299031942249335    
     1.280323929083721        0.6220747133246909    
     1.285658612121570        0.6143030962601955    
     1.290993295159419        0.6065891613941881    
     1.296327978197267        0.5989336895369785    
     1.301662661235116        0.5913374242451755    
     1.306997344272965        0.5838010721392910    
     1.312332027310814        0.5763253032393639    
     1.317666710348663        0.5689107513179051    
     1.323001393386511        0.5615580142692618    
     1.328336076424360        0.5542676544945468    
     1.333670759462209        0.5470401993014206    
     1.339005442500058        0.5398761413178318    
     1.344340125537907        0.5327759389188791    
     1.349674808575756        0.5257400166660704    
     1.355009491613605        0.5187687657580835    
     1.360344174651453        0.5118625444922228    
     1.365678857689302        0.5050216787358482    
     1.371013540727151        0.4982464624069209    
     1.376348223765000        0.4915371579628899    
     1.381682906802849        0.4848939968971814    
     1.387017589840698        0.4783171802425195    
     1.392352272878546        0.4718068790802820    
     1.397686955916395        0.4653632350552306    
     1.403021638954244        0.4589863608948559    
     1.408356321992093        0.4526763409326159    
     1.413691005029942        0.4464332316344195    
     1.419025688067791        0.4402570621276548    
     1.424360371105639        0.4341478347320936    
     1.429695054143488        0.4281055254920585    
     1.435029737181337        0.4221300847092249    
     1.440364420219186        0.4162214374754784    
     1.445699103257035        0.4103794842052353    
     1.451033786294884        0.4046041011667304    
     1.456368469332732        0.3988951410114037    
     1.461703152370581        0.3932524333003625    
     1.467037835408430        0.3876757850316574    
     1.472372518446279        0.3821649811610457    
     1.477707201484128        0.3767197851176941    
     1.483041884521977        0.3713399393192430    
     1.488376567559826        0.3660251656858067    
     1.493711250597674        0.3607751661408767    
     1.499045933635523        0.3555896231199892    
     1.504380616673372        0.3504682000391531    
     1.509715299711221        0.3454105418092331    
     1.515049982749070        0.3404162753185746    
     1.520384665786918        0.3354850098950760    
     1.525719348824767        0.3306163377806406    
     1.531054031862616        0.3258098345935765    
     1.536388714900465        0.3210650597792648    
     1.541723397938314        0.3163815571042550    
     1.547058080976163        0.3117588550444312    
     1.552392764014011        0.3071964672235261    
     1.557727447051860        0.3026938927645084    
     1.563062130089709        0.2982506168348729    
     1.568396813127558        0.2938661111819617    
     1.573731496165407        0.2895398347381099    
     1.579066179203256        0.2852712339079857    
     1.584400862241105        0.2810597421288777    
     1.589735545278953        0.2769047798748323    
     1.595070228316802        0.2728057548367194    
     1.600404911354651        0.2687620637080790    
     1.605739594392500        0.2647730946510917    
     1.611074277430349        0.2608382298523288    
     1.616408960468197        0.2569568481592592    
     1.621743643506046        0.2531283277572537    
     1.627078326543895        0.2493520484284125    
     1.632413009581744        0.2456273937914060    
     1.637747692619593        0.2419537520410616    
     1.643082375657442        0.2383305156852621    
     1.648417058695291        0.2347570812644257    
     1.653751741733139        0.2312328486188604    
     1.659086424770988        0.2277572212226252    
     1.664421107808837        0.2243296063881698    
     1.669755790846686        0.2209494154590132    
     1.675090473884535        0.2176160640005211    
     1.680425156922384        0.2143289718041582    
     1.685759839960232        0.2110875629537342    
     1.691094522998081        0.2078912658945506    
     1.696429206035930        0.2047395134983426    
     1.701763889073779        0.2016317431244836    
     1.707098572111628        0.1985673966749591    
     1.712433255149477        0.1955459206454656    
     1.717767938187325        0.1925667661717592    
     1.723102621225174        0.1896293890719592    
     1.728437304263023        0.1867332498849053    
     1.733771987300872        0.1838778139043041    
     1.739106670338721        0.1810625512095578    
     1.744441353376570        0.1782869366927828    
     1.749776036414418        0.1755504500824295    
     1.755110719452267        0.1728525759634403    
     1.760445402490116        0.1701928037945230    
     1.765780085527965        0.1675706279222219    
     1.771114768565814        0.1649855475921288    
     1.776449451603663        0.1624370669571421    
     1.781784134641512        0.1599246950833376    
     1.787118817679360        0.1574479459531098    
     1.792453500717209        0.1550063384659147    
     1.797788183755058        0.1525993964365320    
     1.803122866792907        0.1502266485913470    
     1.808457549830756        0.1478876285623306    
     1.813792232868604        0.1455818748790307    
     1.819126915906453        0.1433089309584806    
     1.824461598944302        0.1410683450934845    
     1.829796281982151        0.1388596704389818    
     1.835130965020000        0.1366824649967710    
     1.840465648057849        0.1345362915985091    
     1.845800331095697        0.1324207178873800    
     1.851135014133546        0.1303353162981836    
     1.856469697171395        0.1282796640360898    
     1.861804380209244        0.1262533430539762    
     1.867139063247093        0.1242559400286798    
     1.872473746284942        0.1222870463359806    
     1.877808429322791        0.1203462580244997    
     1.883143112360639        0.1184331757884679    
     1.888477795398488        0.1165474049395948    
     1.893812478436337        0.1146885553779591    
     1.899147161474186        0.1128562415620153    
     1.904481844512035        0.1110500824777321    
     1.909816527549884        0.1092697016069775    
     1.915151210587732        0.1075147268951883    
     1.920485893625581        0.1057847907183161    
     1.925820576663430        0.1040795298491415    
     1.931155259701279        0.1023985854229699    
     1.936489942739128        0.1007416029028001    
     1.941824625776976        0.9910823204394965E-01
     1.947159308814825        0.9749812685821142E-01
     1.952493991852674        0.9591094557753352E-01
     1.957828674890523        0.9434635061733869E-01
     1.963163357928372        0.9280400853944118E-01
     1.968498040966221        0.9128359001462243E-01
     1.973832724004070        0.8978476978490883E-01
     1.979167407041919        0.8830722662555757E-01
     1.984502090079767        0.8685064330678702E-01
     1.989836773117616        0.8541470655529153E-01
     1.995171456155465        0.8399910701555410E-01
     2.000506139193314        0.8260353921100806E-01
     2.005840822231163        0.8122770150501403E-01
     2.011175505269011        0.7987129606174086E-01
     2.016510188306860        0.7853402880692745E-01
     2.021844871344709        0.7721560938860589E-01
     2.027179554382558        0.7591575113771712E-01
     2.032514237420407        0.7463417102870071E-01
     2.037848920458256        0.7337058964007052E-01
     2.043183603496105        0.7212473111498063E-01
     2.048518286533954        0.7089632312185520E-01
     2.053852969571802        0.6968509681495688E-01
     2.059187652609651        0.6849078679506533E-01
     2.064522335647500        0.6731313107018999E-01
     2.069857018685349        0.6615187101640684E-01
     2.075191701723198        0.6500675133873789E-01
     2.080526384761046        0.6387752003212389E-01
     2.085861067798895        0.6276392834253941E-01
     2.091195750836744        0.6166573072820734E-01
     2.096530433874593        0.6058268482103748E-01
     2.101865116912442        0.5951455138807910E-01
     2.107199799950290        0.5846109429321000E-01
     2.112534482988139        0.5742208045897087E-01
     2.117869166025988        0.5639727982858325E-01
     2.123203849063837        0.5538646532820087E-01
     2.128538532101686        0.5438941282923601E-01
     2.133873215139535        0.5340590111097091E-01
     2.139207898177383        0.5243571182334097E-01
     2.144542581215232        0.5147862944997722E-01
     2.149877264253081        0.5053444127143893E-01
     2.155211947290930        0.4960293732862920E-01
     2.160546630328779        0.4868391038649324E-01
     2.165881313366627        0.4777715589791540E-01
     2.171215996404476        0.4688247196793656E-01
     2.176550679442325        0.4599965931811733E-01
     2.181885362480174        0.4512852125117767E-01
     2.187220045518023        0.4426886361590666E-01
     2.192554728555872        0.4342049477229534E-01
     2.197889411593721        0.4258322555701970E-01
     2.203224094631570        0.4175686924905857E-01
     2.208558777669418        0.4094124153563579E-01
     2.213893460707267        0.4013616047842752E-01
     2.219228143745116        0.3934144648001449E-01
     2.224562826782965        0.3855692225068687E-01
     2.229897509820814        0.3778241277539716E-01
     2.235232192858663        0.3701774528105260E-01
     2.240566875896512        0.3626274920407543E-01
     2.245901558934360        0.3551725615821581E-01
     2.251236241972209        0.3478109990271596E-01
     2.256570925010058        0.3405411631063940E-01
     2.261905608047907        0.3333614333753743E-01
     2.267240291085756        0.3262702099038484E-01
     2.272574974123605        0.3192659129677421E-01
     2.277909657161453        0.3123469827445070E-01
     2.283244340199302        0.3055118790102990E-01
     2.288579023237151        0.2987590808404057E-01
     2.293913706275000        0.2920870863123947E-01
     2.299248389312849        0.2854944122118220E-01
     2.304583072350697        0.2789795937411923E-01
     2.309917755388546        0.2725411842309744E-01
     2.315252438426395        0.2661777548536273E-01
     2.320587121464244        0.2598878943403430E-01
     2.325921804502093        0.2536702087003688E-01
     2.331256487539942        0.2475233209432956E-01
     2.336591170577790        0.2414458708036775E-01
     2.341925853615639        0.2354365144683525E-01
     2.347260536653488        0.2294939243064783E-01
     2.352595219691337        0.2236167886021179E-01
     2.357929902729186        0.2178038112894867E-01
     2.363264585767034        0.2120537116907941E-01
     2.368599268804883        0.2063652242564434E-01
     2.373933951842732        0.2007370983079316E-01
     2.379268634880581        0.1951680977832308E-01
     2.384603317918430        0.1896570009846138E-01
     2.389938000956279        0.1842026003291021E-01
     2.395272683994128        0.1788037021011192E-01
     2.400607367031976        0.1734591262077276E-01
     2.405942050069825        0.1681677059362255E-01
     2.411276733107674        0.1629282877147820E-01
     2.416611416145523        0.1577397310029056E-01
     2.421946099183372        0.1526009113954844E-01
     2.427280782221221        0.1475107448570993E-01
     2.432615465259070        0.1424682636180893E-01
     2.437950148296919        0.1374727474393160E-01
     2.443284831334767        0.1325238742126088E-01
     2.448619514372616        0.1276218462155459E-01
     2.453954197410465        0.1227674665833111E-01
     2.459288880448314        0.1179621613608966E-01
     2.464623563486163        0.1132079552320733E-01
     2.469958246524012        0.1085074137429391E-01
     2.475292929561860        0.1038635647162638E-01
     2.480627612599709        0.9927980932591309E-02
     2.485962295637558        0.9475983057804437E-02
     2.491296978675407        0.9030750447463175E-02
     2.496631661713256        0.8592681716502602E-02
     2.501966344751104        0.8162178993671157E-02
     2.507301027788953        0.7739641287972915E-02
     2.512635710826802        0.7325458738136864E-02
     2.517970393864651        0.6920007717745325E-02
     2.523305076902500        0.6523646743108635E-02
     2.528639759940349        0.6136713117283985E-02
     2.533974442978197        0.5759520237771958E-02
     2.539309126016046        0.5392355494593788E-02
     2.544643809053895        0.5035478687572672E-02
     2.549978492091744        0.4689120895473413E-02
     2.555313175129593        0.4353483734210639E-02
     2.560647858167441        0.4028738946017165E-02
     2.565982541205290        0.3715028265796387E-02
     2.571317224243139        0.3412463514560756E-02
     2.576651907280988        0.3121126872433039E-02
     2.581986590318837        0.2841071284860777E-02
     2.587321273356686        0.2572320954763489E-02
     2.592655956394535        0.2314871869366209E-02
     2.597990639432383        0.2068692301789909E-02
     2.603325322470232        0.1833723211117934E-02
     2.608660005508081        0.1609878435105626E-02
     2.613994688545930        0.1397044516339401E-02
     2.619329371583779        0.1195079903708839E-02
     2.624664054621628        0.1003813079356618E-02
     2.629998737659477        0.8230387663069144E-03
     2.635333420697325        0.6525104892278347E-03
     2.640668103735174        0.4919255630947874E-03
     2.646002786773023        0.3408922372316970E-03
     2.651337469810872        0.1988461058670226E-03
     2.656672152848721        0.6475726186972095E-04
     2.662006835886570         0.000000000000000    
  0  6  1  0  2.000000   #orbital l, n, z, is_polarized, population
 500    0.1271018377469786E-01     6.342381703574234     # npts, delta, cutoff
     0.000000000000000        0.8141368697698966    
    0.1271018377469786E-01    0.8142286022957466    