<preamble>

<basis_specs>
===============================================================================
Kr                   Z=  36    Mass=  83.798        Charge= 0.17977+309
Lmxo=2 Lmxkb= 2    BasisType=split      Semic=F
L=0  Nsemic=0  Cnfigmx=4
          i=1  nzeta=2  polorb=0  (4s)
            splnorm:   0.15000    
               vcte:    40.000    
               rinn:    3.8657    
               qcoe:    0.0000    
               qyuk:    0.0000    
               qwid:   0.10000E-01
                rcs:    4.2909      2.8615    
            lambdas:    1.0000      1.0000    
L=1  Nsemic=0  Cnfigmx=4
          i=1  nzeta=2  polorb=1  (4p)  (to be polarized perturbatively)
            splnorm:   0.15000    
               vcte:    40.000    
               rinn:    4.8921    
               qcoe:    0.0000    
               qyuk:    0.0000    
               qwid:   0.10000E-01
                rcs:    5.4357      3.6623    
            lambdas:    1.0000      1.0000    
L=2  Nsemic=0  Cnfigmx=4
          i=1  nzeta=0  polorb=0  (4d)  (perturbative polarization orbital) (from 4p)
-------------------------------------------------------------------------------
L=0  Nkbl=1  erefs: 0.17977+309
L=1  Nkbl=1  erefs: 0.17977+309
L=2  Nkbl=1  erefs: 0.17977+309
===============================================================================
</basis_specs>

<pseudopotential_header>
 Kr pb nrl pcec
 ONCVPSP-3.2017-10-31Hamann's oncvpsp                        
 4s 2.00  r= 1.76/4p 6.00  r= 1.51/4d 0.00  r= 1.80/                    4s:4p:
</pseudopotential_header>
</preamble>
Kr                            # Symbol
Kr                            # Label
   36                         # Atomic number
     8.00000000000                             # Valence charge
     83.7980000000        # Mass 
     66.8970189147        # Self energy 
   2   5                      # Lmax for basis, no. of nl orbitals 
   2   6                      # Lmax for projectors, no. of nl KB projectors
# PAOs:__________________________
  0  4  1  0  2.000000   #orbital l, n, z, is_polarized, population
 500    0.8599045494671944E-02     4.290923701841300     # npts, delta, cutoff
     0.000000000000000        0.9078218817773856E-01
    0.8599045494671944E-02    0.9090096564404331E-01
    0.1719809098934389E-01    0.9126083218568570E-01
    0.2579713648401583E-01    0.9186030724585270E-01
    0.3439618197868777E-01    0.9269893548178461E-01
    0.4299522747335972E-01    0.9377608018690704E-01
    0.5159427296803167E-01    0.9509092340880289E-01
    0.6019331846270361E-01    0.9664246637131074E-01
    0.6879236395737555E-01    0.9842953002648351E-01
    0.7739140945204749E-01    0.1004507557189068    
    0.8599045494671943E-01    0.1027046059608655    
    0.9458950044139137E-01    0.1051893653200029    
    0.1031885459360633        0.1079031414221400    
    0.1117875914307353        0.1108438660724064    
    0.1203866369254072        0.1140092964981555    
    0.1289856824200792        0.1173970167173813    
    0.1375847279147511        0.1210044390365284    
    0.1461837734094230        0.1248288056817291    
    0.1547828189040950        0.1288671905675862    
    0.1633818643987669        0.1331165012076598    
    0.1719809098934389        0.1375734807708189    
    0.1805799553881108        0.1422347102875520    
    0.1891790008827827        0.1470966110102401    
    0.1977780463774547        0.1521554469312398    
    0.2063770918721267        0.1574073274624255    
    0.2149761373667986        0.1628482102795956    
    0.2235751828614705        0.1684739043348541    
    0.2321742283561425        0.1742800730397454    
    0.2407732738508144        0.1802622376215319    
    0.2493723193454864        0.1864157806545896    
    0.2579713648401583        0.1927359497684295    
    0.2665704103348303        0.1992178615333494    
    0.2751694558295022        0.2058565055241958    
    0.2837685013241741        0.2126467485621365    
    0.2923675468188461        0.2195833391337590    
    0.3009665923135180        0.2266609119861847    
    0.3095656378081900        0.2338739928962383    
    0.3181646833028619        0.2412170036110619    
    0.3267637287975338        0.2486842669568797    
    0.3353627742922058        0.2562700121119220    
    0.3439618197868777        0.2639683800388462    
    0.3525608652815497        0.2717734290712646    
    0.3611599107762216        0.2796791406483202    
    0.3697589562708936        0.2876794251905374    
    0.3783580017655655        0.2957681281095179    
    0.3869570472602374        0.3039390359433554    
    0.3955560927549094        0.3121858826090267    
    0.4041551382495813        0.3205023557623653    
    0.4127541837442533        0.3288821032556281    
    0.4213532292389253        0.3373187396821170    
    0.4299522747335972        0.3458058529967373    
    0.4385513202282691        0.3543370112009283    
    0.4471503657229411        0.3629057690798898    
    0.4557494112176130        0.3715056749796624    
    0.4643484567122850        0.3801302776112079    
    0.4729475022069569        0.3887731328683467    
    0.4815465477016289        0.3974278106461281    
    0.4901455931963008        0.4060879016459950    
    0.4987446386909727        0.4147470241539475    
    0.5073436841856447        0.4233988307778083    
    0.5159427296803166        0.4320370151296435    
    0.5245417751749886        0.4406553184394172    
    0.5331408206696605        0.4492475360860098    
    0.5417398661643325        0.4578075240318765    
    0.5503389116590044        0.4663292051478226    
    0.5589379571536763        0.4748065754146117    
    0.5675370026483483        0.4832337099883953    
    0.5761360481430202        0.4916047691173857    
    0.5847350936376922        0.4999140038975358    
    0.5933341391323641        0.5081557618555357    
    0.6019331846270360        0.5163244923478658    
    0.6105322301217080        0.5244147517652925    
    0.6191312756163799        0.5324212085327614    
    0.6277303211110519        0.5403386478953247    
    0.6363293666057238        0.5481619764813916    
    0.6449284121003958        0.5558862266353628    
    0.6535274575950677        0.5635065605124600    
    0.6621265030897396        0.5710182739293106    
    0.6707255485844116        0.5784167999647357    
    0.6793245940790835        0.5856977123059308    
    0.6879236395737555        0.5928567283361433    
    0.6965226850684274        0.5998897119607866    
    0.7051217305630993        0.6067926761697612    
    0.7137207760577713        0.6135617853346969    
    0.7223198215524432        0.6201933572405933    
    0.7309188670471152        0.6266838648522836    
    0.7395179125417871        0.6330299378169224    
    0.7481169580364591        0.6392283637045841    
    0.7567160035311310        0.6452760889898181    
    0.7653150490258029        0.6511702197778282    
    0.7739140945204749        0.6569080222796908    
    0.7825131400151468        0.6624869230417612    
    0.7911121855098188        0.6679045089350951    
    0.7997112310044907        0.6731585269113766    
    0.8083102764991626        0.6782468835324674    
    0.8169093219938346        0.6831676442812507    
    0.8255083674885066        0.6879190326619736    
    0.8341074129831786        0.6924994290987466    
    0.8427064584778505        0.6969073696413342    
    0.8513055039725225        0.7011415444876841    
    0.8599045494671944        0.7052007963330007    
    0.8685035949618664        0.7090841185554225    
    0.8771026404565383        0.7127906532485755    
    0.8857016859512102        0.7163196891114176    
    0.8943007314458822        0.7196706592059158    
    0.9028997769405541        0.7228431385931167    
    0.9114988224352261        0.7258368418581693    
    0.9200978679298980        0.7286516205347948    
    0.9286969134245699        0.7312874604396029    
    0.9372959589192419        0.7337444789264483    
    0.9458950044139138        0.7360229220708527    
    0.9544940499085858        0.7381231617942097    
    0.9630930954032577        0.7400456929372334    
    0.9716921408979297        0.7417911302917413    
    0.9802911863926016        0.7433602055994616    
    0.9888902318872735        0.7447537645261766    
    0.9974892773819455        0.7459727636190275    
     1.006088322876617        0.7470182672543288    
     1.014687368371289        0.7478914445827681    
     1.023286413865961        0.7485935664783222    
     1.031885459360633        0.7491260024966269    
     1.040484504855305        0.7494902178480729    
     1.049083550349977        0.7496877703902650    
     1.057682595844649        0.7497203076439100    
     1.066281641339321        0.7495895638357339    
     1.074880686833993        0.7492973569712684    
     1.083479732328665        0.7488455859398401    
     1.092078777823337        0.7482362276537616    
     1.100677823318009        0.7474713342228387    
     1.109276868812681        0.7465530301649248    
     1.117875914307353        0.7454835096529154    
     1.126474959802025        0.7442650337977917    
     1.135074005296697        0.7428999279669966    
     1.143673050791369        0.7413905791371675    
     1.152272096286040        0.7397394332795922    
     1.160871141780712        0.7379489927764336    
     1.169470187275384        0.7360218138656469    
     1.178069232770056        0.7339605041120513    
     1.186668278264728        0.7317677199017429    
     1.195267323759400        0.7294461639569573    
     1.203866369254072        0.7269985828682478    
     1.212465414748744        0.7244277651252317    
     1.221064460243416        0.7217365399693199    
     1.229663505738088        0.7189277681201457    
     1.238262551232760        0.7160043471924284    
     1.246861596727432        0.7129692064767947    
     1.255460642222104        0.7098253045040217    
     1.264059687716776        0.7065756266061554    
     1.272658733211448        0.7032231824691556    
     1.281257778706120        0.6997710036743606    
     1.289856824200792        0.6962221412262960    
     1.298455869695464        0.6925796630646898    
     1.307054915190135        0.6888466515587544    
     1.315653960684807        0.6850262009822696    
     1.324253006179479        0.6811214149681921    
     1.332852051674151        0.6771354039420551    
     1.341451097168823        0.6730712825337211    
     1.350050142663495        0.6689321669676116    
     1.358649188158167        0.6647211724317874    
     1.367248233652839        0.6604414104268045    
     1.375847279147511        0.6560959860957468    
     1.384446324642183        0.6516879955371634    
     1.393045370136855        0.6472205231033420    
     1.401644415631527        0.6426966386864749    
     1.410243461126199        0.6381193949960352    
     1.418842506620871        0.6334918248307189    
     1.427441552115543        0.6288169383493706    
     1.436040597610215        0.6240977203449041    
     1.444639643104886        0.6193371275261157    
     1.453238688599559        0.6145380858124484    
     1.461837734094230        0.6097034876522974    
     1.470436779588902        0.6048361893477314    
     1.479035825083574        0.5999390084449793    
     1.487634870578246        0.5950147211160570    
     1.496233916072918        0.5900660595977778    
     1.504832961567590        0.5850957097610436    
     1.513432007062262        0.5801063085810010    
     1.522031052556934        0.5751004418178395    
     1.530630098051606        0.5700806417367494    
     1.539229143546278        0.5650493847501088    
     1.547828189040950        0.5600090893306775    
     1.556427234535622        0.5549621140018581    
     1.565026280030294        0.5499107553193917    
     1.573625325524966        0.5448572460448988    
     1.582224371019638        0.5398037534630872    
     1.590823416514310        0.5347523776858076    
     1.599422462008981        0.5297051501332869    
     1.608021507503653        0.5246640322134961    
     1.616620552998325        0.5196309140815244    
     1.625219598492997        0.5146076135230190    
     1.633818643987669        0.5095958750038689    
     1.642417689482341        0.5045973688644113    
     1.651016734977013        0.4996136906617129    
     1.659615780471685        0.4946463606653425    
     1.668214825966357        0.4896968235096180    
     1.676813871461029        0.4847664480038658    
     1.685412916955701        0.4798565271018991    
     1.694011962450373        0.4749682780315412    
     1.702611007945045        0.4701028425755268    
     1.711210053439717        0.4652612874238104    
     1.719809098934389        0.4604446049545201    
     1.728408144429061        0.4556537144756308    
     1.737007189923733        0.4508894628821801    
     1.745606235418405        0.4461526237902363    
     1.754205280913077        0.4414438983104094    
     1.762804326407748        0.4367639210062587    
     1.771403371902420        0.4321132689192377    
     1.780002417397092        0.4274924714680468    
     1.788601462891764        0.4229020200723014    
     1.797200508386436        0.4183423758801809    
     1.805799553881108        0.4138139716542950    
     1.814398599375780        0.4093172109126020    
     1.822997644870452        0.4048524676692238    
     1.831596690365124        0.4004200879656199    
     1.840195735859796        0.3960203912274108    
     1.848794781354468        0.3916536712517679    
     1.857393826849140        0.3873201970732795    
     1.865992872343812        0.3830202138802826    
     1.874591917838484        0.3787539438848215    
     1.883190963333156        0.3745215871826539    
     1.891790008827828        0.3703233225916525    
     1.900389054322499        0.3661593084586350    
     1.908988099817172        0.3620296834418321    
     1.917587145311843        0.3579345672689959    
     1.926186190806515        0.3538740614733508    
     1.934785236301187        0.3498482501065635    
     1.943384281795859        0.3458572004296580    
     1.951983327290531        0.3419009635820774    
     1.960582372785203        0.3379795752301092    
     1.969181418279875        0.3340930561947842    
     1.977780463774547        0.3302414130597207    
     1.986379509269219        0.3264246387601042    
     1.994978554763891        0.3226427131525300    
     2.003577600258563        0.3188956035666447    
     2.012176645753235        0.3151832653391669    
     2.020775691247907        0.3115056423303379    
     2.029374736742579        0.3078626674238037    
     2.037973782237251        0.3042542630101875    
     2.046572827731922        0.3006803414545282    
     2.055171873226595        0.2971408055486082    
     2.063770918721267        0.2936355489481983    
     2.072369964215938        0.2901644565955515    
     2.080969009710610        0.2867274051280846    
     2.089568055205282        0.2833242632731509    
     2.098167100699954        0.2799548922293759    
     2.106766146194626        0.2766191460353289    
     2.115365191689298        0.2733168719254338    
     2.123964237183970        0.2700479106736576    
     2.132563282678642        0.2668120969255462    
     2.141162328173314        0.2636092595186252    
     2.149761373667986        0.2604392217916516    
     2.158360419162658        0.2573018018831911    
     2.166959464657330        0.2541968130195889    
     2.175558510152002        0.2511240637927848    
     2.184157555646673        0.2480833584283437    
     2.192756601141346        0.2450744970438559    
     2.201355646636018        0.2420972758980680    
     2.209954692130689        0.2391514876310847    
     2.218553737625362        0.2362369214958164    
     2.227152783120034        0.2333533635809991    
     2.235751828614705        0.2305005970260377    
     2.244350874109377        0.2276784022279300    
     2.252949919604049        0.2248865570405188    
     2.261548965098721        0.2221248369662879    
     2.270148010593393        0.2193930153409654    
     2.278747056088065        0.2166908635112035    
     2.287346101582737        0.2140181510054163    
     2.295945147077409        0.2113746456981155    
     2.304544192572081        0.2087601139680064    
     2.313143238066753        0.2061743208498081    
     2.321742283561425        0.2036170301802036    
     2.330341329056097        0.2010880047381582    
     2.338940374550769        0.1985870063795303    
     2.347539420045440        0.1961137961663464    
     2.356138465540113        0.1936681344909665    
     2.364737511034785        0.1912497811951648    
     2.373336556529456        0.1888584956843000    
     2.381935602024128        0.1864940370368589    
     2.390534647518801        0.1841561641095347    
     2.399133693013472        0.1818446356376875    
     2.407732738508144        0.1795592103316860    
     2.416331784002816        0.1772996469692776    
     2.424930829497488        0.1750657044837366    
     2.433529874992160        0.1728571420482938    
     2.442128920486832        0.1706737191569566    
     2.450727965981504        0.1685151957016457    
     2.459327011476176        0.1663813320458397    
     2.467926056970848        0.1642718890949615    
     2.476525102465520        0.1621866283636278    
     2.485124147960192        0.1601253120395593    
     2.493723193454864        0.1580877030446150    
     2.502322238949536        0.1560735650930410    
     2.510921284444207        0.1540826627467239    
     2.519520329938879        0.1521147614678169    
     2.528119375433552        0.1501696276687967    
     2.536718420928223        0.1482470287600489    
     2.545317466422895        0.1463467331948807    
     2.553916511917567        0.1444685105122860    
     2.562515557412239        0.1426121313775461    
     2.571114602906911        0.1407773676205031    
     2.579713648401583        0.1389639922718024    
     2.588312693896255        0.1371717795971295    
     2.596911739390927        0.1354005051295479    
     2.605510784885599        0.1336499456998497    
     2.614109830380271        0.1319198794651717    
     2.622708875874943        0.1302100859359033    
     2.631307921369615        0.1285203460008691    
     2.639906966864287        0.1268504419509069    
     2.648506012358959        0.1252001575009061    
     2.657105057853630        0.1235692778103799    
     2.665704103348303        0.1219575895025522    
     2.674303148842974        0.1203648806820943    
     2.682902194337646        0.1187909409515272    
     2.691501239832318        0.1172355614263511    
     2.700100285326990        0.1156985347489364    
     2.708699330821662        0.1141796551012449    
     2.717298376316334        0.1126787182164048    
     2.725897421811006        0.1111955213892059    
     2.734496467305678        0.1097298634855484    
     2.743095512800350        0.1082815449508868    
     2.751694558295022        0.1068503678176839    
     2.760293603789694        0.1054361357119754    
     2.768892649284366        0.1040386538590285    
     2.777491694779038        0.1026577290881535    
     2.786090740273710        0.1012931698366585    
     2.794689785768382        0.9994478615308389E-01
     2.803288831263054        0.9861238969964567E-01
     2.811887876757726        0.9729579375396945E-01
     2.820486922252397        0.9599481321009969E-01
     2.829085967747070        0.9470926457890910E-01
     2.837685013241741        0.9343896598783552E-01
     2.846284058736413        0.9218373718001986E-01
     2.854883104231085        0.9094339951284228E-01
     2.863482149725757        0.8971777595595257E-01
     2.872081195220429        0.8850669108873593E-01
     2.880680240715101        0.8730997109727860E-01
     2.889279286209773        0.8612744377083330E-01
     2.897878331704445        0.8495893849785949E-01
     2.906477377199117        0.8380428626159520E-01
     2.915076422693789        0.8266331963521240E-01
     2.923675468188461        0.8153587277656349E-01
     2.932274513683133        0.8042178142256562E-01
     2.940873559177805        0.7932088288320456E-01
     2.949472604672477        0.7823301603519457E-01
     2.958071650167148        0.7715802131530460E-01
     2.966670695661821        0.7609574071337880E-01
     2.975269741156493        0.7504601776505344E-01
     2.983868786651164        0.7400869754418637E-01
     2.992467832145836        0.7298362665502692E-01
     3.001066877640509        0.7197065322412223E-01
     3.009665923135180        0.7096962689198481E-01
     3.018264968629852        0.6998039880452862E-01
     3.026864014124524        0.6900282160429994E-01
     3.035463059619196        0.6803674942148821E-01
     3.044062105113868        0.6708203786475210E-01
     3.052661150608540        0.6613854401185909E-01
     3.061260196103212        0.6520612640016651E-01
     3.069859241597884        0.6428464501692639E-01
     3.078458287092556        0.6337396128944446E-01
     3.087057332587228        0.6247393807509675E-01
     3.095656378081900        0.6158443965121985E-01
     3.104255423576572        0.6070533170487133E-01
     3.112854469071244        0.5983648132247379E-01
     3.121453514565915        0.5897775697935523E-01
     3.130052560060587        0.5812902852918791E-01
     3.138651605555260        0.5729016719333783E-01
     3.147250651049931        0.5646104555012728E-01
     3.155849696544603        0.5564153752401940E-01
     3.164448742039275        0.5483151837473563E-01
     3.173047787533947        0.5403086468629781E-01
     3.181646833028619        0.5323945435602492E-01
     3.190245878523291        0.5245716658347124E-01
     3.198844924017963        0.5168388185932010E-01
     3.207443969512635        0.5091948195422832E-01
     3.216043015007307        0.5016384990763517E-01
     3.224642060501979        0.4941687001655582E-01
     3.233241105996651        0.4867842782433365E-01
     3.241840151491323        0.4794841010938265E-01
     3.250439196985995        0.4722670487387483E-01
     3.259038242480667        0.4651320133247160E-01
     3.267637287975338        0.4580778990101246E-01
     3.276236333470011        0.4511036218521024E-01
     3.284835378964682        0.4442081096932698E-01
     3.293434424459354        0.4373903020485875E-01
     3.302033469954027        0.4306491499925225E-01
     3.310632515448698        0.4239836160460355E-01
     3.319231560943370        0.4173926740638800E-01
     3.327830606438042        0.4108753091215538E-01
     3.336429651932714        0.4044305174031469E-01
     3.345028697427386        0.3980573060890391E-01
     3.353627742922058        0.3917546932438683E-01
     3.362226788416730        0.3855217077047616E-01
     3.370825833911402        0.3793573889696172E-01
     3.379424879406074        0.3732607870862460E-01
     3.388023924900746        0.3672309625414452E-01
     3.396622970395418        0.3612669861505951E-01
     3.405222015890090        0.3553679389473609E-01
     3.413821061384762        0.3495329120740646E-01
     3.422420106879434        0.3437610066724802E-01
     3.431019152374105        0.3380513337749314E-01
     3.439618197868778        0.3324030141959416E-01
     3.448217243363449        0.3268151784240930E-01
     3.456816288858121        0.3212869665147244E-01
     3.465415334352793        0.3158175279829390E-01
     3.474014379847465        0.3104060216971278E-01
     3.482613425342137        0.3050516157730500E-01
     3.491212470836809        0.2997534874683633E-01
     3.499811516331481        0.2945108230778158E-01
     3.508410561826153        0.2893228178289313E-01
     3.517009607320825        0.2841886757782550E-01
     3.525608652815497        0.2791076097081884E-01
     3.534207698310169        0.2740788410244926E-01
     3.542806743804841        0.2691015996542090E-01
     3.551405789299513        0.2641751239443135E-01
     3.560004834794185        0.2592986605609228E-01
     3.568603880288856        0.2544714643891603E-01
     3.577202925783529        0.2496927984337694E-01
     3.585801971278201        0.2449619337200220E-01
     3.594401016772872        0.2402781491955272E-01
     3.603000062267544        0.2356407316325691E-01
     3.611599107762216        0.2310489755311885E-01
     3.620198153256888        0.2265021830230114E-01
     3.628797198751560        0.2219996637753378E-01
     3.637396244246232        0.2175407348962205E-01
     3.645995289740904        0.2131247208400745E-01
     3.654594335235576        0.2087509533140374E-01
     3.663193380730248        0.2044187711851369E-01
     3.671792426224920        0.2001275203876666E-01
     3.680391471719592        0.1958765538316028E-01
     3.688990517214264        0.1916652313115744E-01
     3.697589562708936        0.1874929194165239E-01
     3.706188608203608        0.1833589914402762E-01
     3.714787653698280        0.1792628272922804E-01
     3.723386699192952        0.1752038134094033E-01
     3.731985744687623        0.1711813426682916E-01
     3.740584790182295        0.1671948142984436E-01
     3.749183835676968        0.1632436337962555E-01
     3.757782881171639        0.1593272128389161E-01
     3.766381926666311        0.1554449691994180E-01
     3.774980972160983        0.1515963266622172E-01
     3.783580017655655        0.1477807149365126E-01
     3.792179063150327        0.1439975695824024E-01
     3.800778108644999        0.1402463319209278E-01
     3.809377154139671        0.1365264489545717E-01
     3.817976199634343        0.1328373732865925E-01
     3.826575245129015        0.1291785630523064E-01
     3.835174290623687        0.1255494818116713E-01
     3.843773336118359        0.1219495984839218E-01
     3.852372381613031        0.1183783872773782E-01
     3.860971427107703        0.1148353276055040E-01
     3.869570472602375        0.1113199040051748E-01
     3.878169518097047        0.1078316060631663E-01
     3.886768563591719        0.1043699283652457E-01
     3.895367609086390        0.1009343704018681E-01
     3.903966654581062        0.9752443743843790E-02
     3.912565700075735        0.9413965179188338E-02
     3.921164745570406        0.9077960265973486E-02
     3.929763791065078        0.8744405523451716E-02
     3.938362836559750        0.8413309792400327E-02
     3.946961882054422        0.8084728221477905E-02
     3.955560927549094        0.7758771958976159E-02
     3.964159973043766        0.7435612234021014E-02
     3.972759018538438        0.7115479202742815E-02
     3.981358064033110        0.6798656775241607E-02
     3.989957109527782        0.6485474799570919E-02
     3.998556155022454        0.6176299771367895E-02
     4.007155200517126        0.5871525024848613E-02
     4.015754246011798        0.5571561057937301E-02
     4.024353291506469        0.5276826421500867E-02
     4.032952337001142        0.4987739428925605E-02
     4.041551382495814        0.4704710815888836E-02
     4.050150427990485        0.4428137394702145E-02
     4.058749473485157        0.4158396691321536E-02
     4.067348518979830        0.3895842518025768E-02
     4.075947564474501        0.3640801414450487E-02
     4.084546609969173        0.3393569879451070E-02
     4.093145655463845        0.3154412312836345E-02
     4.101744700958517        0.2923559586407409E-02
     4.110343746453189        0.2701208166861680E-02
     4.118942791947861        0.2487519717607695E-02
     4.127541837442533        0.2282621111679965E-02
     4.136140882937205        0.2086604793133204E-02
     4.144739928431877        0.1899529429255371E-02
     4.153338973926549        0.1721420800344662E-02
     4.161938019421220        0.1552272877348130E-02
     4.170537064915893        0.1392049040041285E-02
     4.179136110410565        0.1240683389163155E-02
     4.187735155905236        0.1098082104199279E-02
     4.196334201399909        0.9641247929774833E-03
     4.204933246894581        0.8386657673857574E-03
     4.213532292389252        0.7215351565633221E-03
     4.222131337883924        0.6125397253095392E-03
     4.230730383378596        0.5114631809981322E-03
     4.239329428873268        0.4180655812037049E-03
     4.247928474367940        0.3320810837613356E-03
     4.256527519862612        0.2532124017277736E-03
     4.265126565357284        0.1811179612473113E-03
     4.273725610851956        0.1153801592731476E-03
     4.282324656346628        0.5541072314498749E-04
     4.290923701841300         0.000000000000000    
  0  4  2  0  0.000000   #orbital l, n, z, is_polarized, population
 500    0.5734441734590267E-02     2.861486425560543     # npts, delta, cutoff
     0.000000000000000       -0.3776105904254694    
    0.5734441734590267E-02   -0.3775118106568081    
    0.1146888346918053E-01   -0.3772087491438684    
    0.1720332520377080E-01   -0.3767037559316193    
    0.2293776693836107E-01   -0.3759969998690046    
    0.2867220867295133E-01   -0.3750887161061668    
    0.3440665040754160E-01   -0.3739792066929693    
    0.4014109214213187E-01   -0.3726688405985555    
    0.4587553387672214E-01   -0.3711580536438751    
    0.5160997561131241E-01   -0.3694473484016999    
    0.5734441734590267E-01   -0.3675372940748834    
    0.6307885908049293E-01   -0.3654285263556440    
    0.6881330081508320E-01   -0.3631217472666305    
    0.7454774254967347E-01   -0.3606177249838989    
    0.8028218428426373E-01   -0.3579172936416831    
    0.8601662601885400E-01   -0.3550213531187331    
    0.9175106775344427E-01   -0.3519308688059337    
    0.9748550948803454E-01   -0.3486468713548759    
    0.1032199512226248       -0.3451704564070312    
    0.1089543929572151       -0.3415027843031479    
    0.1146888346918053       -0.3376450797724777    
    0.1204232764263956       -0.3335986316014189    