<preamble>

<basis_specs>
===============================================================================
Mn                   Z=  25    Mass=  54.938        Charge= 0.17977+309
Lmxo=2 Lmxkb= 2    BasisType=split      Semic=T
L=0  Nsemic=1  Cnfigmx=4
          i=1  nzeta=1  polorb=0  (3s)  (semicore shell)
            splnorm:   0.15000    
               vcte:    40.000    
               rinn:    2.3317    
               qcoe:    0.0000    
               qyuk:    0.0000    
               qwid:   0.10000E-01
                rcs:    2.5882    
            lambdas:    1.0000    
          i=2  nzeta=2  polorb=0  (4s)  (to be polarized non-perturbatively)
            splnorm:   0.15000    
               vcte:    40.000    
               rinn:    6.3729    
               qcoe:    0.0000    
               qyuk:    0.0000    
               qwid:   0.10000E-01
                rcs:    7.0810      5.0271    
            lambdas:    1.0000      1.0000    
L=1  Nsemic=1  Cnfigmx=4
          i=1  nzeta=1  polorb=0  (3p)  (semicore shell)
            splnorm:   0.15000    
               vcte:    40.000    
               rinn:    2.6039    
               qcoe:    0.0000    
               qyuk:    0.0000    
               qwid:   0.10000E-01
                rcs:    2.8903    
            lambdas:    1.0000    
          i=2  nzeta=1  polorb=0  (4p)  (non-perturbative polarization shell)
            splnorm:   0.15000    
               vcte:    40.000    
               rinn:    6.3793    
               qcoe:    0.0000    
               qyuk:    0.0000    
               qwid:   0.10000E-01
                rcs:    7.0810    
            lambdas:    1.0000    
L=2  Nsemic=0  Cnfigmx=3
          i=1  nzeta=2  polorb=0  (3d)
            splnorm:   0.15000    
               vcte:    40.000    
               rinn:    4.1884    
               qcoe:    0.0000    
               qyuk:    0.0000    
               qwid:   0.10000E-01
                rcs:    4.6491      2.8386    
            lambdas:    1.0000      1.0000    
-------------------------------------------------------------------------------
L=0  Nkbl=2  erefs: 0.17977+309 0.17977+309
L=1  Nkbl=2  erefs: 0.17977+309 0.17977+309
L=2  Nkbl=1  erefs: 0.17977+309
===============================================================================
</basis_specs>

<pseudopotential_header>
 Mn pb nrl pcec
 ONCVPSP-3.2017-10-31Hamann's oncvpsp                        
 3s 2.00  r= 1.41/3p 6.00  r= 1.21/3d 5.00  r= 1.61/                    3s:3p:3d:4s:
</pseudopotential_header>
</preamble>
Mn                            # Symbol
Mn                            # Label
   25                         # Atomic number
     15.0000000000                             # Valence charge
     54.9380000000        # Mass 
     294.851954589        # Self energy 
   2   7                      # Lmax for basis, no. of nl orbitals 
   2   6                      # Lmax for projectors, no. of nl KB projectors
# PAOs:__________________________
  0  3  1  0  2.000000   #orbital l, n, z, is_polarized, population
 500    0.5186830387233487E-02     2.588228363229510     # npts, delta, cutoff
     0.000000000000000         2.173031637057583    
    0.5186830387233487E-02     2.172957643793620    
    0.1037366077446697E-01     2.172898189895213    
    0.1556049116170046E-01     2.172799111814533    
    0.2074732154893395E-01     2.172660296311280    
    0.2593415193616744E-01     2.172481616413580    
    0.3112098232340092E-01     2.172262914100316    
    0.3630781271063441E-01     2.172003997987102    
    0.4149464309786790E-01     2.171704642922373    
    0.4668147348510138E-01     2.171364590038461    
    0.5186830387233488E-01     2.170983546966468    
    0.5705513425956836E-01     2.170561188135200    
    0.6224196464680185E-01     2.170097155127369    
    0.6742879503403533E-01     2.169591057082492    
    0.7261562542126883E-01     2.169042471141644    
    0.7780245580850231E-01     2.168450942931543    
    0.8298928619573580E-01     2.167815987086454    
    0.8817611658296928E-01     2.167137087806732    
    0.9336294697020277E-01     2.166413699453163    
    0.9854977735743627E-01     2.165645247176232    
    0.1037366077446698         2.164831127579541    
    0.1089234381319032         2.163970709416600    
    0.1141102685191367         2.163063334320179    
    0.1192970989063702         2.162108317563394    
    0.1244839292936037         2.161104948851694    
    0.1296707596808372         2.160052493144882    
    0.1348575900680707         2.158950191508242    
    0.1400444204553042         2.157797261991879    
    0.1452312508425377         2.156592900537288    
    0.1504180812297711         2.155336281910174    
    0.1556049116170046         2.154026560658530    
    0.1607917420042381         2.152662872094923    
    0.1659785723914716         2.151244333301928    
    0.1711654027787051         2.149770044159637    
    0.1763522331659386         2.148239088394134    
    0.1815390635531721         2.146650534645806    
    0.1867258939404055         2.145003437556365    
    0.1919127243276390         2.143296838873387    
    0.1970995547148725         2.141529768571234    
    0.2022863851021060         2.139701245987131    
    0.2074732154893395         2.137810280971195    
    0.2126600458765730         2.135855875049206    
    0.2178468762638065         2.133837022596900    
    0.2230337066510400         2.131752712024515    
    0.2282205370382734         2.129601926970379    
    0.2334073674255069         2.127383647502241    
    0.2385941978127404         2.125096851325137    
    0.2437810281999739         2.122740514994474    
    0.2489678585872074         2.120313615133127    
    0.2541546889744409         2.117815129651226    
    0.2593415193616744         2.115244038967407    
    0.2645283497489079         2.112599327230246    
    0.2697151801361413         2.109879983538618    
    0.2749020105233748         2.107085003159745    
    0.2800888409106083         2.104213388743651    
    0.2852756712978418         2.101264151532829    
    0.2904625016850753         2.098236312565841    
    0.2956493320723088         2.095128903873680    
    0.3008361624595423         2.091940969667636    
    0.3060229928467758         2.088671567517524    
    0.3112098232340093         2.085319769519048    
    0.3163966536212428         2.081884663449173    
    0.3215834840084762         2.078365353908335    
    0.3267703143957097         2.074760963448370    
    0.3319571447829432         2.071070633685050    
    0.3371439751701767         2.067293526394146    
    0.3423308055574102         2.063428824589955    
    0.3475176359446436         2.059475733585211    
    0.3527044663318771         2.055433482031420    
    0.3578912967191106         2.051301322938598    
    0.3630781271063441         2.047078534673407    
    0.3682649574935776         2.042764421934826    
    0.3734517878808111         2.038358316706377    
    0.3786386182680446         2.033859579184065    
    0.3838254486552781         2.029267598679149    
    0.3890122790425116         2.024581794494937    
    0.3941991094297451         2.019801616776813    
    0.3993859398169785         2.014926547334742    
    0.4045727702042120         2.009956100437499    
    0.4097596005914455         2.004889823577960    
    0.4149464309786790         1.999727298208779    
    0.4201332613659125         1.994468140447836    
    0.4253200917531459         1.989112001752835    
    0.4305069221403794         1.983658569564548    
    0.4356937525276129         1.978107567918146    
    0.4408805829148464         1.972458758022136    
    0.4460674133020799         1.966711938804481    
    0.4512542436893134         1.960866947425480    
    0.4564410740765469         1.954923659757026    
    0.4616279044637804         1.948881990827907    
    0.4668147348510139         1.942741895234873    
    0.4720015652382474         1.936503367519193    
    0.4771883956254808         1.930166442508459    
    0.4823752260127143         1.923731195623485    
    0.4875620563999478         1.917197743150131    
    0.4927488867871813         1.910566242475930    
    0.4979357171744148         1.903836892291481    
    0.5031225475616483         1.897009932756507    
    0.5083093779488818         1.890085645630644    
    0.5134962083361152         1.883064354368941    
    0.5186830387233488         1.875946424182179    
    0.5238698691105822         1.868732262062072    
    0.5290566994978158         1.861422316771524    
    0.5342435298850492         1.854017078800140    
    0.5394303602722826         1.846517080285118    
    0.5446171906595162         1.838922894897833    
    0.5498040210467496         1.831235137696378    
    0.5549908514339832         1.823454464944372    
    0.5601776818212166         1.815581573896335    
    0.5653645122084501         1.807617202550055    
    0.5705513425956836         1.799562129366321    
    0.5757381729829171         1.791417172967718    
    0.5809250033701506         1.783183200915603    
    0.5861118337573841         1.774861103933963    
    0.5912986641446175         1.766451816666581    
    0.5964854945318511         1.757956314578808    
    0.6016723249190845         1.749375611258237    
    0.6068591553063181         1.740710757919704    
    0.6120459856935515         1.731962842881894    
    0.6172328160807850         1.723132991016176    
    0.6224196464680185         1.714222363168322    
    0.6276064768552519         1.705232155553831    
    0.6327933072424855         1.696163599127535    
    0.6379801376297189         1.687017958928200    
    0.6431669680169524         1.677796533398902    
    0.6483537984041859         1.668500653683910    
    0.6535406287914194         1.659131682902845    
    0.6587274591786529         1.649691015402932    
    0.6639142895658864         1.640180075990132    
    0.6691011199531198         1.630600319139973    
    0.6742879503403534         1.620953228188910    
    0.6794747807275868         1.611240314507056    
    0.6846616111148204         1.601463116653162    
    0.6898484415020538         1.591623199512633    
    0.6950352718892873         1.581722153419523    
    0.7002221022765208         1.571761593263366    
    0.7054089326637543         1.561743157581687    
    0.7105957630509878         1.551668507639099    
    0.7157825934382213         1.541539326493908    
    0.7209694238254547         1.531357318053064    
    0.7261562542126883         1.521124206116378    
    0.7313430845999217         1.510841733410899    
    0.7365299149871553         1.500511660616332    
    0.7417167453743887         1.490135765382401    
    0.7469035757616221         1.479715841339043    
    0.7520904061488557         1.469253697100329    
    0.7572772365360891         1.458751155262965    
    0.7624640669233227         1.448210051400277    
    0.7676508973105561         1.437632233052549    
    0.7728377276977896         1.427019558714567    
    0.7780245580850231         1.416373896821243    
    0.7832113884722566         1.405697124732154    
    0.7883982188594901         1.394991127715811    
    0.7935850492467236         1.384257797934563    
    0.7987718796339570         1.373499033430875    
    0.8039587100211906         1.362716737115824    
    0.8091455404084240         1.351912815760597    
    0.8143323707956576         1.341089178991786    
    0.8195192011828910         1.330247738291232    
    0.8247060315701245         1.319390406001182    
    0.8298928619573580         1.308519094335498    
    0.8350796923445915         1.297635714397621    
    0.8402665227318250         1.286742175206029    
    0.8454533531190584         1.275840382727855    
    0.8506401835062919         1.264932238921367    
    0.8558270138935254         1.254019640787920    
    0.8610138442807589         1.243104479434076    
    0.8662006746679924         1.232188639144430    
    0.8713875050552259         1.221273996465866    
    0.8765743354424593         1.210362419303697    
    0.8817611658296929         1.199455766030349    
    0.8869479962169263         1.188555884607049    
    0.8921348266041599         1.177664611719119    
    0.8973216569913933         1.166783771925323    
    0.9025084873786268         1.155915176821787    
    0.9076953177658603         1.145060624220926    
    0.9128821481530938         1.134221897345839    
    0.9180689785403273         1.123400764040548    
    0.9232558089275608         1.112598975996566    
    0.9284426393147942         1.101818267996102    
    0.9336294697020278         1.091060357172284    
    0.9388163000892612         1.080326942286721    
    0.9440031304764948         1.069619703024742    
    0.9491899608637282         1.058940299308613    
    0.9543767912509616         1.048290370628965    
    0.9595636216381952         1.037671535394734    
    0.9647504520254286         1.027085390301814    
    0.9699372824126622         1.016533509720634    
    0.9751241127998956         1.006017445102883    
    0.9803109431871291        0.9955387244075039    
    0.9854977735743626        0.9850988515461725    
    0.9906846039615961        0.9746993058483217    
    0.9958714343488295        0.9643415415458862    
     1.001058264736063        0.9540269872778152    
     1.006245095123297        0.9437570456144538    
     1.011431925510530        0.9335330926018532    
     1.016618755897764        0.9233564773259941    
     1.021805586284997        0.9132285214970434    
     1.026992416672230        0.9031505190535202    
     1.032179247059464        0.8931237357865043    
     1.037366077446698        0.8831494089837089    
     1.042552907833931        0.8732287470934436    
     1.047739738221164        0.8633629294084203    
     1.052926568608398        0.8535531057692547    
     1.058113398995632        0.8438003962877139    
     1.063300229382865        0.8341058910893638    
     1.068487059770098        0.8244706500757115    
     1.073673890157332        0.8148957027056053    
     1.078860720544565        0.8053820477957353    
     1.084047550931799        0.7959306533401840    
     1.089234381319032        0.7865424563486442    
     1.094421211706266        0.7772183627033162    
     1.099608042093499        0.7679592470341943    
     1.104794872480733        0.7587659526125172    
     1.109981702867966        0.7496392912622963    
     1.115168533255200        0.7405800432894577    
     1.120355363642433        0.7315889574285751    
     1.125542194029667        0.7226667508068600    
     1.130729024416900        0.7138141089251445    
     1.135915854804134        0.7050316856556836    
     1.141102685191367        0.6963201032563491    
     1.146289515578601        0.6876799524010577    
     1.151476345965834        0.6791117922261474    
     1.156663176353068        0.6706161503924106    
     1.161850006740301        0.6621935231625549    
     1.167036837127535        0.6538443754933594    
     1.172223667514768        0.6455691411416449    
     1.177410497902002        0.6373682227903895    
     1.182597328289235        0.6292419921788149    
     1.187784158676469        0.6211907902534659    
     1.192970989063702        0.6132149273357597    
     1.198157819450936        0.6053146832978088    
     1.203344649838169        0.5974903077411853    
     1.208531480225403        0.5897420202028991    
     1.213718310612636        0.5820700103913190    
     1.218905140999869        0.5744744383727240    
     1.224091971387103        0.5669554348285709    
     1.229278801774337        0.5595131012754655    
     1.234465632161570        0.5521475104204785    
     1.239652462548803        0.5448587063414336    
     1.244839292936037        0.5376467047974345    
     1.250026123323271        0.5305114934877678    
     1.255212953710504        0.5234530323946154    
     1.260399784097737        0.5164712540778665    
     1.265586614484971        0.5095660639913580    
     1.270773444872204        0.5027373408129674    
     1.275960275259438        0.4959849367809740    
     1.281147105646671        0.4893086780388842    
     1.286333936033905        0.4827083649877070    
     1.291520766421138        0.4761837726462769    
     1.296707596808372        0.4697346510188568    
     1.301894427195605        0.4633607254698419    
     1.307081257582839        0.4570616971052161    
     1.312268087970072        0.4508372431605770    
     1.317454918357306        0.4446870173954803    
     1.322641748744539        0.4386106504937424    
     1.327828579131773        0.4326077504695243    
     1.333015409519006        0.4266779030789665    
     1.338202239906240        0.4208206722370367    
     1.343389070293473        0.4150356004394357    
     1.348575900680707        0.4093222091893208    
     1.353762731067940        0.4036799994285974    
     1.358949561455174        0.3981084519735118    
     1.364136391842407        0.3926070279538909    
     1.369323222229641        0.3871751691919761    
     1.374510052616874        0.3818122986433314    
     1.379696883004108        0.3765178210805408    
     1.384883713391341        0.3712911237597764    
     1.390070543778575        0.3661315769557350    
     1.395257374165808        0.3610385332511615    
     1.400444204553042        0.3560113273460904    
     1.405631034940275        0.3510492764848683    
     1.410817865327509        0.3461516833822478    
     1.416004695714742        0.3413178399774995    
     1.421191526101976        0.3365470314177615    
     1.426378356489209        0.3318385401736356    
     1.431565186876443        0.3271916498022059    
     1.436752017263676        0.3226056483272266    
     1.441938847650909        0.3180798299347811    
     1.447125678038143        0.3136134946141831    
     1.452312508425377        0.3092059474735657    
     1.457499338812610        0.3048564978438977    
     1.462686169199843        0.3005644596488837    
     1.467872999587077        0.2963291516410772    
     1.473059829974311        0.2921498977020477    
     1.478246660361544        0.2880260268995349    
     1.483433490748777        0.2839568734938074    
     1.488620321136011        0.2799417769989210    
     1.493807151523244        0.2759800822391932    
     1.498993981910478        0.2720711394032116    
     1.504180812297711        0.2682143040913357    
     1.509367642684945        0.2644089373593555    
     1.514554473072178        0.2606544057569500    
     1.519741303459412        0.2569500813623850    
     1.524928133846645        0.2532953418131106    
     1.530114964233879        0.2496895703324210    
     1.535301794621112        0.2461321557523373    
     1.540488625008346        0.2426224925328989    
     1.545675455395579        0.2391599807780653    
     1.550862285782813        0.2357440262485483    
     1.556049116170046        0.2323740403723237    
     1.561235946557280        0.2290494402492422    
     1.566422776944513        0.2257696486530256    
     1.571609607331747        0.2225340940363660    
     1.576796437718980        0.2193422105310050    
     1.581983268106214        0.2161934379345984    
     1.587170098493447        0.2130872217102641    
     1.592356928880681        0.2100230129739663    
     1.597543759267914        0.2070002684792945    
     1.602730589655148        0.2040184506359009    
     1.607917420042381        0.2010770274559806    
     1.613104250429614        0.1981754725390939    
     1.618291080816848        0.1953132650717246    
     1.623477911204082        0.1924898898123200    
     1.628664741591315        0.1897048370517316    
     1.633851571978548        0.1869576026438567    
     1.639038402365782        0.1842476878508686    
     1.644225232753016        0.1815745994126452    
     1.649412063140249        0.1789378495128424    
     1.654598893527482        0.1763369557170714    
     1.659785723914716        0.1737714410182775    
     1.664972554301949        0.1712408337301617    
     1.670159384689183        0.1687446674746226    
     1.675346215076416        0.1662824811518631    
     1.680533045463650        0.1638538189060015    
     1.685719875850883        0.1614582300910738    
     1.690906706238117        0.1590952692341980    
     1.696093536625350        0.1567644959988756    
     1.701280367012584        0.1544654751478781    
     1.706467197399817        0.1521977765049271    
     1.711654027787051        0.1499609749163042    
     1.716840858174284        0.1477546502117044    
     1.722027688561518        0.1455783871645689    
     1.727214518948751        0.1434317754520359    
     1.732401349335985        0.1413144096143873    
     1.737588179723218        0.1392258890140646    
     1.742775010110452        0.1371658177943531    
     1.747961840497685        0.1351338048378260    
     1.753148670884919        0.1331294637244298    
     1.758335501272152        0.1311524126892837    
     1.763522331659386        0.1292022745802662    
     1.768709162046619        0.1272786768154972    
     1.773895992433853        0.1253812513405730    
     1.779082822821086        0.1235096345856535    
     1.784269653208320        0.1216634674224256    
     1.789456483595553        0.1198423951210701    
     1.794643313982787        0.1180460673070866    
     1.799830144370020        0.1162741379180871    
     1.805016974757254        0.1145262651605277    
     1.810203805144487        0.1128021114665434    
     1.815390635531721        0.1111013434507284    
     1.820577465918954        0.1094236318669689    
     1.825764296306188        0.1077686515652974    
     1.830951126693421        0.1061360814488911    
     1.836137957080655        0.1045256044311081    
     1.841324787467888        0.1029369073926407    
     1.846511617855122        0.1013696811387731    
     1.851698448242355        0.9982362035679167E-01
     1.856885278629588        0.9829842357352592E-01
     1.862072109016822        0.9679379311304313E-01
     1.867258939404056        0.9530943505453623E-01
     1.872445769791289        0.9384505919035735E-01
     1.877632600178522        0.9240037898425195E-01
     1.882819430565756        0.9097511152978856E-01
     1.888006260952990        0.8956897750901584E-01
     1.893193091340223        0.8818170115133574E-01
     1.898379921727456        0.8681301019255434E-01
     1.903566752114690        0.8546263583420481E-01
     1.908753582501923        0.8413031270308047E-01
     1.913940412889157        0.8281577881111905E-01
     1.919127243276390        0.8151877551536181E-01
     1.924314073663624        0.8023904747828618E-01
     1.929500904050857        0.7897634262834934E-01
     1.934687734438091        0.7773041212088967E-01
     1.939874564825324        0.7650101029919455E-01
     1.945061395212558        0.7528789465586351E-01
     1.950248225599791        0.7409082579447009E-01
     1.955435055987025        0.7290956739149602E-01
     1.960621886374258        0.7174388615864148E-01
     1.965808716761492        0.7059355180523885E-01
     1.970995547148725        0.6945833700108937E-01
     1.976182377535959        0.6833801733953440E-01
     1.981369207923192        0.6723237130092342E-01
     1.986556038310426        0.6614118021625566E-01
     1.991742868697659        0.6506422823115381E-01
     1.996929699084893        0.6400130227015383E-01
     2.002116529472126        0.6295219200128077E-01
     2.007303359859359        0.6191668980101411E-01
     2.012490190246593        0.6089459071938956E-01
     2.017677020633827        0.5988569244551645E-01
     2.022863851021060        0.5888979527335753E-01
     2.028050681408294        0.5790670206785992E-01
     2.033237511795527        0.5693621823135567E-01
     2.038424342182760        0.5597815167023300E-01
     2.043611172569994        0.5503231276195572E-01
     2.048798002957227        0.5409851432235653E-01
     2.053984833344461        0.5317657157329680E-01
     2.059171663731695        0.5226630211053707E-01
     2.064358494118928        0.5136752587195600E-01
     2.069545324506161        0.5048006510606500E-01
     2.074732154893395        0.4960374434081470E-01
     2.079918985280628        0.4873839035273120E-01
     2.085105815667862        0.4788383213629628E-01
     2.090292646055095        0.4703990087366160E-01
     2.095479476442329        0.4620642990464486E-01
     2.100666306829563        0.4538325469702447E-01
     2.105853137216796        0.4457021281712663E-01
     2.111039967604029        0.4376714390069841E-01
     2.116226797991263        0.4297388962407606E-01
     2.121413628378496        0.4219029367564125E-01
     2.126600458765730        0.4141620172755692E-01
     2.131787289152963        0.4065146140779130E-01
     2.136974119540197        0.3989592227243628E-01
     2.142160949927430        0.3914943577829609E-01
     2.147347780314664        0.3841185525576445E-01
     2.152534610701897        0.3768303588196049E-01
     2.157721441089131        0.3696283465416028E-01
     2.162908271476364        0.3625111036350647E-01
     2.168095101863598        0.3554772356897994E-01
     2.173281932250831        0.3485253657165174E-01
     2.178468762638065        0.3416541338917974E-01
     2.183655593025298        0.3348621973059836E-01
     2.188842423412532        0.3281482297137415E-01
     2.194029253799765        0.3215109212871207E-01
     2.199216084186999        0.3149489783713257E-01
     2.204402914574232        0.3084611232428948E-01
     2.209589744961466        0.3020460938706159E-01
     2.214776575348699        0.2957026436790215E-01
     2.219963405735933        0.2894295413143025E-01
     2.225150236123166        0.2832255704127943E-01
     2.230337066510399        0.2770895293716538E-01
     2.235523896897633        0.2710202311223586E-01
     2.240710727284867        0.2650165029069575E-01
     2.245897557672100        0.2590771860564106E-01
     2.251084388059334        0.2532011357731959E-01
     2.256271218446567        0.2473872209123530E-01
     2.261458048833800        0.2416343237614798E-01
     2.266644879221034        0.2359413398366462E-01
     2.271831709608267        0.2303071776683787E-01
     2.277018539995501        0.2247307585913233E-01
     2.282205370382735        0.2192110165256453E-01
     2.287392200769968        0.2137468978337273E-01
     2.292579031157202        0.2083373610538482E-01
     2.297765861544435        0.2029813767250909E-01
     2.302952691931668        0.1976779271895751E-01
     2.308139522318902        0.1924260064341377E-01
     2.313326352706135        0.1872246197922038E-01
     2.318513183093369        0.1820727838503486E-01
     2.323700013480603        0.1769695262358146E-01
     2.328886843867836        0.1719138854277082E-01
     2.334073674255069        0.1669049105652690E-01
     2.339260504642303        0.1619416612824235E-01
     2.344447335029536        0.1570232075227111E-01
     2.349634165416770        0.1521486293647058E-01
     2.354820995804003        0.1473170176972414E-01
     2.360007826191237        0.1425274843741310E-01
     2.365194656578470        0.1377792076696612E-01
     2.370381486965704        0.1330715325936978E-01
     2.375568317352937        0.1284041070910119E-01
     2.380755147740170        0.1237770135133219E-01
     2.385941978127404        0.1191908624747076E-01
     2.391128808514638        0.1146468366623003E-01
     2.396315638901871        0.1101466876091715E-01
     2.401502469289105        0.1056926958776176E-01
     2.406689299676338        0.1012876067100016E-01
     2.411876130063572        0.9693455183256686E-02
     2.417062960450805        0.9263696569838994E-02
     2.422249790838038        0.8839850203997997E-02
     2.427436621225272        0.8422295457337189E-02
     2.432623451612506        0.8011418414651585E-02
     2.437810281999739        0.7607605351145286E-02
     2.442997112386973        0.7211237014240222E-02
     2.448183942774206        0.6822683702734063E-02
     2.453370773161439        0.6442301105563674E-02
     2.458557603548673        0.6070426845008804E-02
     2.463744433935906        0.5707377660626612E-02
     2.468931264323140        0.5353447167350580E-02
     2.474118094710374        0.5008904121848561E-02
     2.479304925097607        0.4673991134011251E-02
     2.484491755484840        0.4348923764265122E-02
     2.489678585872074        0.4033889951578460E-02
     2.494865416259307        0.3729049721115160E-02
     2.500052246646541        0.3434535124063930E-02
     2.505239077033774        0.3150450364953607E-02
     2.510425907421008        0.2876872073383981E-02
     2.515612737808242        0.2613849677090324E-02
     2.520799568195475        0.2361405830877111E-02
     2.525986398582708        0.2119536850023437E-02
     2.531173228969942        0.1888213085123774E-02
     2.536360059357175        0.1667379154189504E-02
     2.541546889744409        0.1456953909926315E-02
     2.546733720131642        0.1256829951037682E-02
     2.551920550518876        0.1066872355940838E-02
     2.557107380906109        0.8869160574189217E-03
     2.562294211293343        0.7167607209738210E-03
     2.567481041680576        0.5561606846421092E-03
     2.572667872067810        0.4048040430735930E-03
     2.577854702455043        0.2622638976594970E-03
     2.583041532842277        0.1278581409716044E-03
     2.588228363229510         0.000000000000000    
  0  4  1  0  2.000000   #orbital l, n, z, is_polarized, population
 500    0.1419042964105027E-01     7.081024390884087     # npts, delta, cutoff
     0.000000000000000         1.029218784089780    
    0.1419042964105027E-01     1.028920370723592    
    0.2838085928210055E-01     1.028102007531993    