<preamble>

<basis_specs>
===============================================================================
Mo                   Z=  42    Mass=  95.950        Charge= 0.17977+309
Lmxo=2 Lmxkb= 2    BasisType=split      Semic=T
L=0  Nsemic=1  Cnfigmx=5
          i=1  nzeta=1  polorb=0  (4s)  (semicore shell)
            splnorm:   0.15000    
               vcte:    40.000    
               rinn:    2.7600    
               qcoe:    0.0000    
               qyuk:    0.0000    
               qwid:   0.10000E-01
                rcs:    3.0635    
            lambdas:    1.0000    
          i=2  nzeta=2  polorb=0  (5s)  (to be polarized non-perturbatively)
            splnorm:   0.15000    
               vcte:    40.000    
               rinn:    7.4877    
               qcoe:    0.0000    
               qyuk:    0.0000    
               qwid:   0.10000E-01
                rcs:    8.3114      6.0629    
            lambdas:    1.0000      1.0000    
L=1  Nsemic=1  Cnfigmx=5
          i=1  nzeta=1  polorb=0  (4p)  (semicore shell)
            splnorm:   0.15000    
               vcte:    40.000    
               rinn:    3.1665    
               qcoe:    0.0000    
               qyuk:    0.0000    
               qwid:   0.10000E-01
                rcs:    3.5183    
            lambdas:    1.0000    
          i=2  nzeta=1  polorb=0  (5p)  (non-perturbative polarization shell)
            splnorm:   0.15000    
               vcte:    40.000    
               rinn:    7.4877    
               qcoe:    0.0000    
               qyuk:    0.0000    
               qwid:   0.10000E-01
                rcs:    8.3114    
            lambdas:    1.0000    
L=2  Nsemic=0  Cnfigmx=4
          i=1  nzeta=2  polorb=0  (4d)
            splnorm:   0.15000    
               vcte:    40.000    
               rinn:    5.5447    
               qcoe:    0.0000    
               qyuk:    0.0000    
               qwid:   0.10000E-01
                rcs:    6.1546      4.0648    
            lambdas:    1.0000      1.0000    
-------------------------------------------------------------------------------
L=0  Nkbl=2  erefs: 0.17977+309 0.17977+309
L=1  Nkbl=2  erefs: 0.17977+309 0.17977+309
L=2  Nkbl=1  erefs: 0.17977+309
===============================================================================
</basis_specs>

<pseudopotential_header>
 Mo pb nrl pcec
 ONCVPSP-3.2017-10-31Hamann's oncvpsp                        
 4s 2.00  r= 1.46/4p 6.00  r= 1.46/4d 5.00  r= 1.35/                    4s:4p:4d:5s:
</pseudopotential_header>
</preamble>
Mo                            # Symbol
Mo                            # Label
   42                         # Atomic number
     14.0000000000                             # Valence charge
     95.9500000000        # Mass 
     249.076163377        # Self energy 
   2   7                      # Lmax for basis, no. of nl orbitals 
   2   6                      # Lmax for projectors, no. of nl KB projectors
# PAOs:__________________________
  0  4  1  0  2.000000   #orbital l, n, z, is_polarized, population
 500    0.6139357622620688E-02     3.063539453687723     # npts, delta, cutoff
     0.000000000000000        0.1439045180982308    
    0.6139357622620688E-02    0.1440815861455203    
    0.1227871524524138E-01    0.1446227074200778    
    0.1841807286786206E-01    0.1455241325565837    
    0.2455743049048275E-01    0.1467851896959050    
    0.3069678811310344E-01    0.1484049407536153    
    0.3683614573572413E-01    0.1503821813845567    
    0.4297550335834482E-01    0.1527154419772922    
    0.4911486098096551E-01    0.1554029889934359    
    0.5525421860358620E-01    0.1584428265742535    
    0.6139357622620688E-01    0.1618326983974253    
    0.6753293384882757E-01    0.1655700897776531    
    0.7367229147144826E-01    0.1696522300072736    
    0.7981164909406895E-01    0.1740760949336582    
    0.8595100671668963E-01    0.1788384097701825    
    0.9209036433931032E-01    0.1839356521374489    
    0.9822972196193101E-01    0.1893640553312506    
    0.1043690795845517        0.1951196118135316    
    0.1105084372071724        0.2011980769223769    
    0.1166477948297931        0.2075949727968454    
    0.1227871524524138        0.2143055925122113    
    0.1289265100750344        0.2213250044209759    
    0.1350658676976551        0.2286480566947801    
    0.1412052253202758        0.2362693820621283    
    0.1473445829428965        0.2441834027366273    
    0.1534839405655172        0.2523843355302357    
    0.1596232981881379        0.2608661971458170    
    0.1657626558107586        0.2696228096431247    
    0.1719020134333793        0.2786478060721171    
    0.1780413710560000        0.2879346362673554    
    0.1841807286786206        0.2974765727970538    
    0.1903200863012413        0.3072667170601934    
    0.1964594439238620        0.3172980055249571    
    0.2025988015464827        0.3275632161016020    
    0.2087381591691034        0.3380549746427344    
    0.2148775167917241        0.3487657615638532    
    0.2210168744143448        0.3596879185768755    
    0.2271562320369655        0.3708136555292822    
    0.2332955896595862        0.3821350573413970    
    0.2394349472822069        0.3936440910342329    
    0.2455743049048275        0.4053326128402647    
    0.2517136625274482        0.4171923753894066    
    0.2578530201500689        0.4292150349624173    
    0.2639923777726896        0.4413921588039071    
    0.2701317353953103        0.4537152324870755    
    0.2762710930179310        0.4661756673222852    
    0.2824104506405516        0.4787648078015416    
    0.2885498082631723        0.4914739390709578    
    0.2946891658857930        0.5042942944232647    
    0.3008285235084137        0.5172170628024466    
    0.3069678811310344        0.5302333963125991    
    0.3131072387536551        0.5433344177231239    
    0.3192465963762758        0.5565112279624400    
    0.3253859539988965        0.5697549135924012    
    0.3315253116215172        0.5830565542556977    
    0.3376646692441378        0.5964072300885888    
    0.3438040268667585        0.6097980290913467    
    0.3499433844893792        0.6232200544489475    
    0.3560827421119999        0.6366644317945591    
    0.3622220997346206        0.6501223164085589    
    0.3683614573572413        0.6635849003458664    
    0.3745008149798620        0.6770434194845242    
    0.3806401726024827        0.6904891604885849    
    0.3867795302251034        0.7039134676785050    
    0.3929188878477241        0.7173077498023737    
    0.3990582454703447        0.7306634867014872    
    0.4051976030929654        0.7439722358639052    
    0.4113369607155861        0.7572256388598265    
    0.4174763183382068        0.7704154276527747    
    0.4236156759608275        0.7835334307807673    
    0.4297550335834482        0.7965715794018466    
    0.4358943912060689        0.8095219131985306    
    0.4420337488286896        0.8223765861359286    
    0.4481731064513103        0.8351278720685232    
    0.4543124640739309        0.8477681701907630    
    0.4604518216965516        0.8602900103268675    
    0.4665911793191723        0.8726860580554804    
    0.4727305369417930        0.8849491196649840    
    0.4788698945644137        0.8970721469355524    
    0.4850092521870344        0.9090482417442515    
    0.4911486098096551        0.9208706604897070    
    0.4972879674322758        0.9325328183331290    
    0.5034273250548964        0.9440282932527043    
    0.5095666826775171        0.9553508299086209    
    0.5157060403001378        0.9664943433162122    
    0.5218453979227585        0.9774529223250030    
    0.5279847555453792        0.9882208329016305    
    0.5341241131679999        0.9987925212148971    
    0.5402634707906205         1.009162616521482    
    0.5464028284132413         1.019325933851003    
    0.5525421860358619         1.029277476489489    
    0.5586815436584827         1.039012438260455    
    0.5648209012811033         1.048526205603118    
    0.5709602589037240         1.057814359447478    
    0.5770996165263447         1.066872676886220    
    0.5832389741489654         1.075697132643746    
    0.5893783317715861         1.084283900342695    
    0.5955176893942068         1.092629353568769    
    0.6016570470168274         1.100730066734724    
    0.6077964046394482         1.108582815744761    
    0.6139357622620688         1.116184578460655    
    0.6200751198846896         1.123532534971332    
    0.6262144775073102         1.130624067667640    
    0.6323538351299309         1.137456761124484    
    0.6384931927525516         1.144028401792502    
    0.6446325503751723         1.150336977501817    
    0.6507719079977929         1.156380676780547    
    0.6569112656204137         1.162157887990890    
    0.6630506232430343         1.167667198285921    
    0.6691899808656551         1.172907392390298    
    0.6753293384882757         1.177877451208303    
    0.6814686961108964         1.182576550262849    
    0.6876080537335171         1.187004057969147    
    0.6937474113561378         1.191159533747015    
    0.6998867689787585         1.195042725975841    
    0.7060261266013792         1.198653569796415    
    0.7121654842239998         1.201992184763996    
    0.7183048418466206         1.205058872357070    
    0.7244441994692412         1.207854113346376    
    0.7305835570918620         1.210378565028900    
    0.7367229147144826         1.212633058331674    
    0.7428622723371033         1.214618594790268    
    0.7490016299597240         1.216336343406938    
    0.7551409875823447         1.217787637393561    
    0.7612803452049653         1.218973970804447    
    0.7674197028275861         1.219896995064278    
    0.7735590604502067         1.220558515396435    
    0.7796984180728275         1.220960487157006    
    0.7858377756954481         1.221105012079877    
    0.7919771333180687         1.220994334438252    
    0.7981164909406895         1.220630837128044    
    0.8042558485633101         1.220017037678564    
    0.8103952061859309         1.219155584195949    
    0.8165345638085515         1.218049251244766    
    0.8226739214311722         1.216700935673250    
    0.8288132790537929         1.215113652387552    
    0.8349526366764136         1.213290530080448    
    0.8410919942990343         1.211234806919849    
    0.8472313519216550         1.208949826202469    
    0.8533707095442756         1.206439031977929    
    0.8595100671668964         1.203705964648526    
    0.8656494247895170         1.200754256549882    
    0.8717887824121378         1.197587627517595    
    0.8779281400347584         1.194209880444916    
    0.8840674976573791         1.190624896836437    
    0.8902068552799998         1.186836632362725    
    0.8963462129026205         1.182849112420876    
    0.9024855705252411         1.178666427768004    
    0.9086249281478619         1.174292729930136    
    0.9147642857704825         1.169732226958967    
    0.9209036433931033         1.164989179037476    
    0.9270430010157239         1.160067894124034    
    0.9331823586383446         1.154972723642531    
    0.9393217162609653         1.149708058208996    
    0.9454610738835860         1.144278323398672    
    0.9516004315062067         1.138687975557332    
    0.9577397891288274         1.132941497660522    
    0.9638791467514480         1.127043395224281    
    0.9700185043740688         1.120998192270706    
    0.9761578619966894         1.114810427351695    
    0.9822972196193102         1.108484649633898    
    0.9884365772419308         1.102025415047986    
    0.9945759348645515         1.095437282504937    
     1.000715292487172         1.088724810182168    
     1.006854650109793         1.081892551881915    
     1.012994007732414         1.074945053464440    
     1.019133365355034         1.067886849358147    
     1.025272722977655         1.060722459148836    
     1.031412080600276         1.053456384249953    
     1.037551438222896         1.046093104655786    
     1.043690795845517         1.038637075779115    
     1.049830153468138         1.031092725374970    
     1.055969511090758         1.023464450551733    
     1.062108868713379         1.015756614871040    
     1.068248226336000         1.007973545537311    
     1.074387583958621         1.000119530678094    
     1.080526941581241        0.9921988167158079    
     1.086666299203862        0.9842156058318552    
     1.092805656826483        0.9761740535233202    
     1.098945014449103        0.9680782662530335    
     1.105084372071724        0.9599322991929200    
     1.111223729694345        0.9517401540611580    
     1.117363087316965        0.9435057770528447    
     1.123502444939586        0.9352330568644421    
     1.129641802562207        0.9269258228115496    
     1.135781160184827        0.9185878430398692    
     1.141920517807448        0.9102228228288683    
     1.148059875430069        0.9018344029876719    
     1.154199233052689        0.8934261583426372    
     1.160338590675310        0.8850015963157606    
     1.166477948297931        0.8765641555933565    
     1.172617305920552        0.8681172048838569    
     1.178756663543172        0.8596640417640545    
     1.184896021165793        0.8512078916124864    
     1.191035378788414        0.8427519066290885    
     1.197174736411034        0.8342991649397741    
     1.203314094033655        0.8258526697847645    
     1.209453451656276        0.8174153487893902    
     1.215592809278896        0.8089900533159176    
     1.221732166901517        0.8005795578950823    
     1.227871524524138        0.7921865597357803    
     1.234010882146758        0.7838136783115065    
     1.240150239769379        0.7754634550219517    
     1.246289597392000        0.7671383529281842    
     1.252428955014620        0.7588407565597849    
     1.258568312637241        0.7505729717923839    
     1.264707670259862        0.7423372257938294    
     1.270847027882482        0.7341356670374550    
     1.276986385505103        0.7259703653806344    
     1.283125743127724        0.7178433122069564    
     1.289265100750345        0.7097564206304279    
     1.295404458372965        0.7017115257597278    
     1.301543815995586        0.6937103850210726    
     1.307683173618207        0.6857546785381138    
     1.313822531240827        0.6778460095673152    
     1.319961888863448        0.6699859049832056    
     1.326101246486069        0.6621758158228792    
     1.332240604108689        0.6544171178730452    
     1.338379961731310        0.6467111123074450    
     1.344519319353931        0.6390590263679957    
     1.350658676976551        0.6314620141149954    
     1.356798034599172        0.6239211571783693    
     1.362937392221793        0.6164374655796433    
     1.369076749844413        0.6090118786014171    
     1.375216107467034        0.6016452656824843    
     1.381355465089655        0.5943384273203155    
     1.387494822712276        0.5870920960591177    
     1.393634180334896        0.5799069375069598    
     1.399773537957517        0.5727835513565304    
     1.405912895580138        0.5657224724508174    
     1.412052253202758        0.5587241718083396    
     1.418191610825379        0.5517890578082295    
     1.424330968448000        0.5449174776147722    
     1.430470326070620        0.5381097187574942    
     1.436609683693241        0.5313660095409090    
     1.442749041315862        0.5246865188796539    
     1.448888398938482        0.5180713572253832    
     1.455027756561103        0.5115205809494403    
     1.461167114183724        0.5050341987368130    
     1.467306471806344        0.4986121784843612    
     1.473445829428965        0.4922544550366091    
     1.479585187051586        0.4859609372453561    
     1.485724544674207        0.4797315134348474    
     1.491863902296827        0.4735660518860171    
     1.498003259919448        0.4674644002982604    
     1.504142617542069        0.4614263852112888    
     1.510281975164689        0.4554518133881783    
     1.516421332787310        0.4495404730307552    
     1.522560690409931        0.4436921348318937    
     1.528700048032551        0.4379065527416970    
     1.534839405655172        0.4321834647306564    
     1.540978763277793        0.4265225935819599    
     1.547118120900413        0.4209236476191645    
     1.553257478523034        0.4153863214465812    
     1.559396836145655        0.4099102966502247    
     1.565536193768275        0.4044952424872293    
     1.571675551390896        0.3991408165401027    
     1.577814909013517        0.3938466653525539    
     1.583954266636137        0.3886124250419886    
     1.590093624258758        0.3834377218925252    
     1.596232981881379        0.3783221729267250    
     1.602372339504000        0.3732653864576644    
     1.608511697126620        0.3682669626212603    
     1.614651054749241        0.3633264938897774    
     1.620790412371862        0.3584435655672250    
     1.626929769994482        0.3536177562668957    
     1.633069127617103        0.3488486383715765    
     1.639208485239724        0.3441357784772578    
     1.645347842862344        0.3394787378205214    
     1.651487200484965        0.3348770726901007    
     1.657626558107586        0.3303303348233633    
     1.663765915730206        0.3258380717879321    
     1.669905273352827        0.3213998273488820    
     1.676044630975448        0.3170151418221447    
     1.682183988598069        0.3126835524144122    
     1.688323346220689        0.3084045935499243    
     1.694462703843310        0.3041777971846280    
     1.700602061465931        0.3000026931081111    
     1.706741419088551        0.2958788092336108    
     1.712880776711172        0.2918056718764795    
     1.719020134333793        0.2877828060215919    
     1.725159491956413        0.2838097355799070    
     1.731298849579034        0.2798859836345441    
     1.737438207201655        0.2760110726767992    
     1.743577564824276        0.2721845248323457    
     1.749716922446896        0.2684058620779338    
     1.755856280069517        0.2646746064489231    
     1.761995637692138        0.2609902802379573    
     1.768134995314758        0.2573524061850322    
     1.774274352937379        0.2537605076592400    
     1.780413710560000        0.2502141088325064    
     1.786553068182620        0.2467127348455423    
     1.792692425805241        0.2432559119662721    
     1.798831783427862        0.2398431677410077    
     1.804971141050482        0.2364740311385964    
     1.811110498673103        0.2331480326877805    
     1.817249856295724        0.2298647046079988    
     1.823389213918345        0.2266235809338460    
     1.829528571540965        0.2234241976334142    
     1.835667929163586        0.2202660927207264    
     1.841807286786207        0.2171488063624479    
     1.847946644408827        0.2140718809790859    
     1.854086002031448        0.2110348613408660    
     1.860225359654069        0.2080372946584806    
     1.866364717276689        0.2050787306688600    
     1.872504074899310        0.2021587217161689    
     1.878643432521931        0.1992768228281905    
     1.884782790144551        0.1964325917882552    
     1.890922147767172        0.1936255892028688    
     1.897061505389793        0.1908553785652015    
     1.903200863012413        0.1881215263145992    
     1.909340220635034        0.1854236018922338    
     1.915479578257655        0.1827611777930559    
     1.921618935880276        0.1801338296141691    
     1.927758293502896        0.1775411360997811    
     1.933897651125517        0.1749826791828253    
     1.940037008748138        0.1724580440234057    
     1.946176366370758        0.1699668190441713    
     1.952315723993379        0.1675085959627342    
     1.958455081616000        0.1650829698212564    
     1.964594439238620        0.1626895390133007    
     1.970733796861241        0.1603279053080522    
     1.976873154483862        0.1579976738720207    
     1.983012512106482        0.1556984532883184    
     1.989151869729103        0.1534298555736112    
     1.995291227351724        0.1511914961928097    
     2.001430584974345        0.1489829940716420    
     2.007569942596965        0.1468039716071552    
     2.013709300219586        0.1446540546762441    
     2.019848657842207        0.1425328726422466    
     2.025988015464827        0.1404400583597791    
     2.032127373087448        0.1383752481777953    
     2.038266730710069        0.1363380819409945    
     2.044406088332689        0.1343282029895784    
     2.050545445955310        0.1323452581575582    
     2.056684803577931        0.1303888977695540    
     2.062824161200551        0.1284587756362138    
     2.068963518823172        0.1265545490482306    
     2.075102876445793        0.1246758787691867    
     2.081242234068413        0.1228224290271140    
     2.087381591691034        0.1209938675049203    
     2.093520949313655        0.1191898653296269    
     2.099660306936276        0.1174100970606696    
     2.105799664558896        0.1156542406771224    
     2.111939022181517        0.1139219775639912    
     2.118078379804138        0.1122129924975163    
     2.124217737426758        0.1105269736297275    
     2.130357095049379        0.1088636124721096    
     2.136496452672000        0.1072226038785163    
     2.142635810294620        0.1056036460272631    
     2.148775167917241        0.1040064404026289    
     2.154914525539862        0.1024306917756515    
     2.161053883162482        0.1008761081843033    
     2.167193240785103        0.9934240091302893E-01
     2.173332598407724        0.9782928447177824E-01
     2.179471956030344        0.9633647657451944E-01
     2.185611313652965        0.9486369811723873E-01
     2.191750671275586        0.9341067315546683E-01
     2.197890028898207        0.9197712888135692E-01
     2.204029386520827        0.9056279560043236E-01
     2.210168744143448        0.8916740670789432E-01
     2.216308101766069        0.8779069866460007E-01
     2.222447459388689        0.8643241097265729E-01
     2.228586817011310        0.8509228615081504E-01
     2.234726174633931        0.8377006970951105E-01
     2.240865532256551        0.8246551012568859E-01
     2.247004889879172        0.8117835881731521E-01
     2.253144247501793        0.7990837011777172E-01
     2.259283605124413        0.7865530125000525E-01
     2.265422962747034        0.7741891230050992E-01
     2.271562320369655        0.7619896619313668E-01
     2.277701677992275        0.7499522866276408E-01
     2.283841035614896        0.7380746822887502E-01
     2.289980393237517        0.7263545616899753E-01
     2.296119750860138        0.7147896649206774E-01
     2.302259108482758        0.7033777591167965E-01
     2.308398466105379        0.6921166381932457E-01
     2.314537823728000        0.6810041225755108E-01
     2.320677181350620        0.6700380589309177E-01
     2.326816538973241        0.6592163198996111E-01
     2.332955896595862        0.6485368038254714E-01
     2.339095254218482        0.6379974344870448E-01
     2.345234611841103        0.6275961608285184E-01
     2.351373969463724        0.6173309566909274E-01
     2.357513327086344        0.6071998205436190E-01
     2.363652684708965        0.5972007752161673E-01
     2.369792042331586        0.5873318676307481E-01
     2.375931399954206        0.5775911685350554E-01
     2.382070757576827        0.5679767722359506E-01
     2.388210115199448        0.5584867963338280E-01
     2.394349472822068        0.5491193814576770E-01
     2.400488830444689        0.5398726910011353E-01
     2.406628188067310        0.5307449108594021E-01
     2.412767545689931        0.5217342491673600E-01
     2.418906903312551        0.5128389360385069E-01
     2.425046260935172        0.5040572233051063E-01
     2.431185618557793        0.4953873842595408E-01
     2.437324976180413        0.4868277133968440E-01
     2.443464333803034        0.4783765261587743E-01
     2.449603691425655        0.4700321586787555E-01
     2.455743049048275        0.4617929675284787E-01
     2.461882406670896        0.4536573294658233E-01
     2.468021764293517        0.4456236411842850E-01
     2.474161121916137        0.4376903190639808E-01
     2.480300479538758        0.4298557989238308E-01
     2.486439837161379        0.4221185357755498E-01
     2.492579194783999        0.4144770035790938E-01
     2.498718552406620        0.4069296949998973E-01
     2.504857910029241        0.3994751211675832E-01
     2.510997267651862        0.3921118114362111E-01
     2.517136625274482        0.3848383131463722E-01
     2.523275982897103        0.3776531913888381E-01
     2.529415340519724        0.3705550287701764E-01
     2.535554698142344        0.3635424251797970E-01
     2.541694055764965        0.3566139975587844E-01
     2.547833413387586        0.3497683796705622E-01
     2.553972771010206        0.3430042218732154E-01
     2.560112128632827        0.3363201908938373E-01
     2.566251486255448        0.3297149696043237E-01
     2.572390843878068        0.3231872567990923E-01
     2.578530201500689        0.3167357669746131E-01
     2.584669559123310        0.3103592301106689E-01
     2.590808916745930        0.3040563914535988E-01
     2.596948274368551        0.2978260113011069E-01
     2.603087631991172        0.2916668647889826E-01
     2.609226989613793        0.2855777416796271E-01
     2.615366347236413        0.2795574461523597E-01
     2.621505704859034        0.2736047965956234E-01
     2.627645062481655        0.2677186254008647E-01
     2.633784420104275        0.2618977787582666E-01
     2.639923777726896        0.2561411164542792E-01
     2.646063135349517        0.2504475116709395E-01
     2.652202492972137        0.2448158507869929E-01
     2.658341850594758        0.2392450331807787E-01
     2.664481208217379        0.2337339710348860E-01
     2.670620565839999        0.2282815891425726E-01
     2.676759923462620        0.2228868247159667E-01
     2.682899281085241        0.2175486271960028E-01
     2.689038638707861        0.2122659580640981E-01
     2.695177996330482        0.2070377906555702E-01
     2.701317353953103        0.2018631099747643E-01
     2.707456711575724        0.1967409125119153E-01
     2.713596069198344        0.1916702060616812E-01
     2.719735426820965        0.1866500095433764E-01
     2.725874784443586        0.1816793528228988E-01
     2.732014142066206        0.1767572765363104E-01
     2.738153499688827        0.1718828319150651E-01
     2.744292857311448        0.1670550806128904E-01
     2.750432214934068        0.1622730945342692E-01
     2.756571572556689        0.1575359556645635E-01
     2.762710930179310        0.1528427559017340E-01
     2.768850287801930        0.1481925968896282E-01
     2.774989645424551        0.1435845898528603E-01
     2.781129003047172        0.1390178554492380E-01
     2.787268360669792        0.1344915245239150E-01
     2.793407718292413        0.1300047491224650E-01
     2.799547075915034        0.1255567515856372E-01
     2.805686433537654        0.1211469324652780E-01
     2.811825791160275        0.1167750169961503E-01
     2.817965148782896        0.1124411955190066E-01
     2.824104506405517        0.1081462227637881E-01
     2.830243864028137        0.1038914626988994E-01
     2.836383221650758        0.9967888241760340E-02
     2.842522579273379        0.9551100653958413E-02
     2.848661936895999        0.9139084528305514E-02
     2.854801294518620        0.8732180784279429E-02
     2.860940652141241        0.8330761007741754E-02
     2.867080009763861        0.7935218287672127E-02
     2.873219367386482        0.7545958537009259E-02
     2.879358725009103        0.7163392544909671E-02
     2.885498082631723        0.6787928888093484E-02
     2.891637440254344        0.6419967742938790E-02
     2.897776797876965        0.6059895591124501E-02
     2.903916155499585        0.5708080774572693E-02
     2.910055513122206        0.5364869838252772E-02
     2.916194870744827        0.5030584589046603E-02
     2.922334228367448        0.4705519797057811E-02
     2.928473585990068        0.4389941466053509E-02
     2.934612943612689        0.4084085601652276E-02
     2.940752301235310        0.3788157411854582E-02
     2.946891658857930        0.3502330878394096E-02
     2.953031016480551        0.3226748642022235E-02
     2.959170374103172        0.2961522149556084E-02
     2.965309731725792        0.2706732013382977E-02
     2.971449089348413        0.2462428536809650E-02
     2.977588446971034        0.2228632359330680E-02
     2.983727804593654        0.2005335174260617E-02
     2.989867162216275        0.1792500468417577E-02
     2.996006519838896        0.1590064217234695E-02
     3.002145877461516        0.1397935458978418E-02
     3.008285235084137        0.1215996629973552E-02
     3.014424592706758        0.1044103482169037E-02
     3.020563950329379        0.8820842833823546E-03
     3.026703307951999        0.7297377593425313E-03
     3.032842665574620        0.5868287191195857E-03
     3.038982023197241        0.4530790867910756E-03
     3.045121380819861        0.3281488079593750E-03
     3.051260738442482        0.2115907124602302E-03
     3.057400096065103        0.1027194741118081E-03
     3.063539453687723         0.000000000000000    
  0  5  1  0  1.000000   #orbital l, n, z, is_polarized, population
 500    0.1665610061958027E-01     8.311394209170556     # npts, delta, cutoff
     0.000000000000000        0.5669203465349538E-01
    0.1665610061958027E-01    0.5720201053671173E-01
    0.3331220123916055E-01    0.5873228456428500E-01