<preamble>

<basis_specs>
===============================================================================
N                    Z=   7    Mass=  14.007        Charge= 0.17977+309
Lmxo=2 Lmxkb= 1    BasisType=split      Semic=F
L=0  Nsemic=0  Cnfigmx=2
          i=1  nzeta=2  polorb=0  (2s)
            splnorm:   0.15000    
               vcte:    40.000    
               rinn:    3.7700    
               qcoe:    0.0000    
               qyuk:    0.0000    
               qwid:   0.10000E-01
                rcs:    4.1889      2.6781    
            lambdas:    1.0000      1.0000    
L=1  Nsemic=0  Cnfigmx=2
          i=1  nzeta=2  polorb=1  (2p)  (to be polarized perturbatively)
            splnorm:   0.15000    
               vcte:    40.000    
               rinn:    4.6438    
               qcoe:    0.0000    
               qyuk:    0.0000    
               qwid:   0.10000E-01
                rcs:    5.1598      3.2897    
            lambdas:    1.0000      1.0000    
L=2  Nsemic=0  Cnfigmx=3
          i=1  nzeta=0  polorb=0  (3d)  (perturbative polarization orbital) (from 2p)
-------------------------------------------------------------------------------
L=0  Nkbl=1  erefs: 0.17977+309
L=1  Nkbl=1  erefs: 0.17977+309
===============================================================================
</basis_specs>

<pseudopotential_header>
 N  pb nrl pcec
 ONCVPSP-3.2017-10-31Hamann's oncvpsp                        
 2s 2.00  r= 1.21/2p 3.00  r= 1.36/                                     2s:2p:
</pseudopotential_header>
</preamble>
N                             # Symbol
N                             # Label
    7                         # Atomic number
     5.00000000000                             # Valence charge
     14.0070000000        # Mass 
     33.1744375228        # Self energy 
   2   5                      # Lmax for basis, no. of nl orbitals 
   1   4                      # Lmax for projectors, no. of nl KB projectors
# PAOs:__________________________
  0  2  1  0  2.000000   #orbital l, n, z, is_polarized, population
 500    0.8394649997728954E-02     4.188930348866748     # npts, delta, cutoff
     0.000000000000000        0.7198497193313804    
    0.8394649997728954E-02    0.7199905682300096    
    0.1678929999545791E-01    0.7204308403495893    
    0.2518394999318686E-01    0.7211638390113884    
    0.3357859999091582E-01    0.7221883737240171    
    0.4197324998864477E-01    0.7235027814396604    
    0.5036789998637373E-01    0.7251049268834029    
    0.5876254998410268E-01    0.7269922043717011    
    0.6715719998183163E-01    0.7291615402513389    
    0.7555184997956059E-01    0.7316093958887692    
    0.8394649997728953E-01    0.7343317712232011    
    0.9234114997501849E-01    0.7373242089146613    
    0.1007357999727475        0.7405817991246619    
    0.1091304499704764        0.7440991849702624    
    0.1175250999682054        0.7478705686939742    
    0.1259197499659343        0.7518897185925850    
    0.1343143999636633        0.7561499767476445    
    0.1427090499613922        0.7606442675991641    
    0.1511036999591212        0.7653651074019292    
    0.1594983499568501        0.7703046146009267    
    0.1678929999545791        0.7754545211585039    
    0.1762876499523080        0.7808061848613306    
    0.1846822999500370        0.7863506026298008    
    0.1930769499477659        0.7920784248464358    
    0.2014715999454949        0.7979799707131060    
    0.2098662499432238        0.8040452446395808    
    0.2182608999409528        0.8102639536581440    
    0.2266555499386818        0.8166255258506780    
    0.2350501999364107        0.8231191297663651    
    0.2434448499341397        0.8297336947991254    
    0.2518394999318686        0.8364579324854128    
    0.2602341499295976        0.8432803586739291    
    0.2686287999273265        0.8501893165103447    
    0.2770234499250555        0.8571730001715286    
    0.2854180999227844        0.8642194792756962    
    0.2938127499205134        0.8713167238872687    
    0.3022073999182424        0.8784526300280130    
    0.3106020499159713        0.8856150455995014    
    0.3189966999137002        0.8927917966162594    
    0.3273913499114292        0.8999707136437776    
    0.3357859999091581        0.9071396583315809    
    0.3441806499068871        0.9142865499282298    
    0.3525752999046161        0.9213993916629443    
    0.3609699499023450        0.9284662968772557    
    0.3693645999000740        0.9354755147899068    
    0.3777592498978029        0.9424154557791239    
    0.3861538998955319        0.9492747160681648    
    0.3945485498932608        0.9560421017030991    
    0.4029431998909898        0.9627066517156317    
    0.4113378498887187        0.9692576603687758    
    0.4197324998864477        0.9756846983889707    
    0.4281271498841767        0.9819776330950525    
    0.4365217998819056        0.9881266473418621    
    0.4449164498796346        0.9941222572047291    
    0.4533110998773635        0.9999553283397212    
    0.4617057498750924         1.005617090964182    
    0.4701003998728214         1.011099153411796    
    0.4784950498705504         1.016393514226707    
    0.4868896998682793         1.021492572771549    
    0.4952843498660083         1.026389138334938    
    0.5036789998637372         1.031076437734267    
    0.5120736498614662         1.035548121420353    
    0.5204682998591952         1.039798268100460    
    0.5288629498569241         1.043821387906143    
    0.5372575998546530         1.047612424141970    
    0.5456522498523820         1.051166753659728    
    0.5540468998501109         1.054480185911423    
    0.5624415498478399         1.057548960741607    
    0.5708361998455689         1.060369744986624    
    0.5792308498432979         1.062939627954187    
    0.5876254998410267         1.065256115861850    
    0.5960201498387557         1.067317125317010    
    0.6044147998364847         1.069120975924406    
    0.6128094498342136         1.070666382109057    
    0.6212040998319426         1.071952444243979    
    0.6295987498296716         1.072978639172172    
    0.6379933998274004         1.073744810211637    
    0.6463880498251294         1.074251156730516    
    0.6547826998228584         1.074498223376921    
    0.6631773498205874         1.074486889044550    
    0.6715719998183163         1.074218355651079    
    0.6799666498160453         1.073694136801382    
    0.6883612998137743         1.072916046402088    
    0.6967559498115031         1.071886187287985    
    0.7051505998092321         1.070606939914151    
    0.7135452498069611         1.069080951160914    
    0.7219398998046900         1.067311123291458    
    0.7303345498024190         1.065300603094738    
    0.7387291998001480         1.063052771238818    
    0.7471238497978769         1.060571231852584    
    0.7555184997956058         1.057859802346467    
    0.7639131497933348         1.054922503475892    
    0.7723077997910638         1.051763549644605    
    0.7807024497887927         1.048387339438733    
    0.7890970997865216         1.044798446376718    
    0.7974917497842506         1.041001609855222    
    0.8058863997819796         1.037001726266434    
    0.8142810497797085         1.032803840258453    
    0.8226756997774375         1.028413136107325    
    0.8310703497751665         1.023834929166891    
    0.8394649997728953         1.019074657361119    
    0.8478596497706243         1.014137872682782    
    0.8562542997683533         1.009030232744052    
    0.8646489497660822         1.003757491972162    
    0.8730435997638112        0.9983254930469577    
    0.8814382497615402        0.9927401581095185    
    0.8898328997592692        0.9870074797398155    
    0.8982275497569980        0.9811335117905996    
    0.9066221997547270        0.9751243600179181    
    0.9150168497524560        0.9689861724927079    
    0.9234114997501849        0.9627251297830982    
    0.9318061497479139        0.9563474349026634    
    0.9402007997456429        0.9498593030257986    
    0.9485954497433717        0.9432669509774512    
    0.9569900997411007        0.9365765865106037    
    0.9653847497388297        0.9297943973910875    
    0.9737793997365587        0.9229265403156643    
    0.9821740497342876        0.9159791296949616    
    0.9905686997320166        0.9089582263386871    
    0.9989633497297455        0.9018698260861333    
     1.007357999727474        0.8947198484296031    
     1.015752649725203        0.8875141251830654    
     1.024147299722932        0.8802583892522748    
     1.032541949720661        0.8729582635657803    
     1.040936599718390        0.8656192502289002    
     1.049331249716119        0.8582467199646789    
     1.057725899713848        0.8508459019072335    
     1.066120549711577        0.8434218738128028    
     1.074515199709306        0.8359795527536764    
     1.082909849707035        0.8285236863593788    
     1.091304499704764        0.8210588446669544    
     1.099699149702493        0.8135894126397508    
     1.108093799700222        0.8061195834107544    
     1.116488449697951        0.7986533523021568    
     1.124883099695680        0.7911945116683604    
     1.133277749693409        0.7837466466038593    
     1.141672399691138        0.7763131315516195    
     1.150067049688867        0.7688971278415009    
     1.158461699686596        0.7615015821814537    
     1.166856349684325        0.7541292261051590    
     1.175250999682053        0.7467825762307412    
     1.183645649679782        0.7394639363532133    
     1.192040299677511        0.7321754005064366    
     1.200434949675240        0.7249188505928607    
     1.208829599672969        0.7176959646324305    
     1.217224249670698        0.7105082517130354    
     1.225618899668427        0.7033570969967324    
     1.234013549666156        0.6962438012354665    
     1.242408199663885        0.6891695942790892    
     1.250802849661614        0.6821356310439546    
     1.259197499659343        0.6751429936181592    
     1.267592149657072        0.6681926955855148    
     1.275986799654801        0.6612856848162518    
     1.284381449652530        0.6544228460783832    
     1.292776099650259        0.6476050036079127    
     1.301170749647988        0.6408329236397399    
     1.309565399645717        0.6341073168284060    
     1.317960049643446        0.6274288405772408    
     1.326354699641175        0.6207981012534258    
     1.334749349638904        0.6142156563817580    
     1.343143999636633        0.6076820166650864    
     1.351538649634362        0.6011976479834331    
     1.359933299632091        0.5947629734309465    
     1.368327949629820        0.5883783749886159    
     1.376722599627549        0.5820441954907399    
     1.385117249625277        0.5757607402353204    
     1.393511899623006        0.5695282784394954    
     1.401906549620735        0.5633470451046949    
     1.410301199618464        0.5572172424047585    
     1.418695849616193        0.5511390411500164    
     1.427090499613922        0.5451125823224174    
     1.435485149611651        0.5391379782832526    
     1.443879799609380        0.5332153140768193    
     1.452274449607109        0.5273446487467303    
     1.460669099604838        0.5215260165232988    
     1.469063749602567        0.5157594279613754    
     1.477458399600296        0.5100448710590287    
     1.485853049598025        0.5043823123284743    
     1.494247699595754        0.4987716978210962    
     1.502642349593483        0.4932129541143457    
     1.511036999591212        0.4877059892600070    
     1.519431649588941        0.4822506936957072    
     1.527826299586670        0.4768469411201827    
     1.536220949584399        0.4714945893347169    
     1.544615599582128        0.4661934810510780    
     1.553010249579857        0.4609434446678466    
     1.561404899577585        0.4557442950158749    
     1.569799549575314        0.4505958340742643    
     1.578194199573043        0.4454978516579706    
     1.586588849570772        0.4404501260778468    
     1.594983499568501        0.4354524247745467    
     1.603378149566230        0.4305045049267669    
     1.611772799563959        0.4256061140353181    
     1.620167449561688        0.4207569904834516    
     1.628562099559417        0.4159568640746717    
     1.636956749557146        0.4112054565486990    
     1.645351399554875        0.4065024820764392    
     1.653746049552604        0.4018476477347704    
     1.662140699550333        0.3972406539618840    
     1.670535349548062        0.3926811949938852    
     1.678929999545791        0.3881689592834786    
     1.687324649543520        0.3837036299011896    
     1.695719299541249        0.3792848849200024    
     1.704113949538978        0.3749123977839244    
     1.712508599536707        0.3705858376610485    
     1.720903249534436        0.3663048697819174    
     1.729297899532164        0.3620691557633641    
     1.737692549529893        0.3578783539187821    
     1.746087199527622        0.3537321195550678    
     1.754481849525351        0.3496301052568171    
     1.762876499523080        0.3455719611583767    
     1.771271149520809        0.3415573352039643    
     1.779665799518538        0.3375858733965819    
     1.788060449516267        0.3336572200359619    
     1.796455099513996        0.3297710179460284    
     1.804849749511725        0.3259269086923084    
     1.813244399509454        0.3221245327896132    
     1.821639049507183        0.3183635299004039    
     1.830033699504912        0.3146435390241952    
     1.838428349502641        0.3109641986783546    
     1.846822999500370        0.3073251470705451    
     1.855217649498099        0.3037260222633008    
     1.863612299495828        0.3001664623308551    
     1.872006949493557        0.2966461055086154    
     1.880401599491286        0.2931645903356475    
     1.888796249489015        0.2897215557902206    
     1.897190899486743        0.2863166414189235    
     1.905585549484472        0.2829494874594886    
     1.913980199482201        0.2796197349574615    
     1.922374849479930        0.2763270258772537    
     1.930769499477659        0.2730710032074998    
     1.939164149475388        0.2698513110610621    
     1.947558799473117        0.2666675947699801    
     1.955953449470846        0.2635195009753340    
     1.964348099468575        0.2604066777125396    
     1.972742749466304        0.2573287744926124    
     1.981137399464033        0.2542854423770961    
     1.989532049461762        0.2512763340509300    
     1.997926699459491        0.2483011038882438    
     2.006321349457220        0.2453594080235620    
     2.014715999454949        0.2424509044060069    
     2.023110649452678        0.2395752528593267    
     2.031505299450407        0.2367321151282845    
     2.039899949448136        0.2339211549378145    
     2.048294599445865        0.2311420380371330    
     2.056689249443594        0.2283944322424764    
     2.065083899441323        0.2256780074750686    
     2.073478549439052        0.2229924358086976    
     2.081873199436781        0.2203373915089233    
     2.090267849434510        0.2177125510457656    
     2.098662499432238        0.2151175931366266    
     2.107057149429967        0.2125521987766655    
     2.115451799427696        0.2100160512640601    
     2.123846449425425        0.2075088362228874    
     2.132241099423154        0.2050302416244623    
     2.140635749420883        0.2025799578076690    
     2.149030399418612        0.2001576774972454    
     2.157425049416341        0.1977630958201801    
     2.165819699414070        0.1953959103202109    
     2.174214349411799        0.1930558209707321    
     2.182608999409528        0.1907425301861200    
     2.191003649407257        0.1884557428315652    
     2.199398299404986        0.1861951662314451    
     2.207792949402715        0.1839605101763190    
     2.216187599400444        0.1817514869285998    
     2.224582249398173        0.1795678112269667    
     2.232976899395902        0.1774092002895680    
     2.241371549393631        0.1752753738160760    
     2.249766199391360        0.1731660539886423    
     2.258160849389089        0.1710809654718038    
     2.266555499386818        0.1690198354113898    
     2.274950149384547        0.1669823934324766    
     2.283344799382276        0.1649683716364300    
     2.291739449380005        0.1629775045970845    
     2.300134099377733        0.1610095293560991    
     2.308528749375462        0.1590641854175218    
     2.316923399373191        0.1571412147416162    
     2.325318049370920        0.1552403617379680    
     2.333712699368649        0.1533613732579236    
     2.342107349366378        0.1515039985863832    
     2.350501999364107        0.1496679894329859    
     2.358896649361836        0.1478530999227159    
     2.367291299359565        0.1460590865859621    
     2.375685949357294        0.1442857083480555    
     2.384080599355023        0.1425327265183169    
     2.392475249352752        0.1407999047786396    
     2.400869899350481        0.1390870091716286    
     2.409264549348210        0.1373938080883271    
     2.417659199345939        0.1357200722555510    
     2.426053849343668        0.1340655747228514    
     2.434448499341396        0.1324300908491300    
     2.442843149339125        0.1308133982889273    
     2.451237799336854        0.1292152769784043    
     2.459632449334583        0.1276355091210319    
     2.468027099332312        0.1260738791730144    
     2.476421749330041        0.1245301738284587    
     2.484816399327770        0.1230041820043069    
     2.493211049325499        0.1214956948250502    
     2.501605699323228        0.1200045056072404    
     2.510000349320957        0.1185304098438084    
     2.518394999318686        0.1170732051882110    
     2.526789649316415        0.1156326914384160    
     2.535184299314144        0.1142086705207393    
     2.543578949311873        0.1128009464735447    
     2.551973599309602        0.1114093254308232    
     2.560368249307331        0.1100336156056593    
     2.568762899305060        0.1086736272735966    
     2.577157549302789        0.1073291727559127    
     2.585552199300518        0.1060000664028168    
     2.593946849298247        0.1046861245765753    
     2.602341499295976        0.1033871656345744    
     2.610736149293705        0.1021030099123363    
     2.619130799291434        0.1008334797064900    
     2.627525449289163        0.9957839925770616E-01
     2.635920099286892        0.9833759473360380E-01
     2.644314749284621        0.9711089421164228E-01
     2.652709399282350        0.9589812766199794E-01
     2.661104049280078        0.9469912693043413E-01
     2.669498699277807        0.9351372572117281E-01
     2.677893349275536        0.9234175957977765E-01
     2.686287999273265        0.9118306587604834E-01
     2.694682649270994        0.9003748378693006E-01
     2.703077299268723        0.8890485427945320E-01
     2.711471949266452        0.8778502009370388E-01
     2.719866599264181        0.8667782572582662E-01
     2.728261249261910        0.8558311741106268E-01
     2.736655899259639        0.8450074310684268E-01
     2.745050549257368        0.8343055247592208E-01
     2.753445199255097        0.8237239686957348E-01
     2.761839849252826        0.8132612931082471E-01
     2.770234499250555        0.8029160447777321E-01
     2.778629149248284        0.7926867868695685E-01
     2.787023799246013        0.7825720987679362E-01
     2.795418449243741        0.7725705759108596E-01
     2.803813099241470        0.7626808296261059E-01
     2.812207749239199        0.7529014869678041E-01
     2.820602399236928        0.7432311905538504E-01
     2.828997049234657        0.7336685984040667E-01
     2.837391699232386        0.7242123837793686E-01
     2.845786349230115        0.7148612350216964E-01
     2.854180999227844        0.7056138553948826E-01
     2.862575649225573        0.6964689629263246E-01
     2.870970299223302        0.6874252902497714E-01
     2.879364949221031        0.6784815844489514E-01
     2.887759599218760        0.6696366069022244E-01
     2.896154249216489        0.6608891331280717E-01
     2.904548899214218        0.6522379526318228E-01
     2.912943549211947        0.6436818687532524E-01
     2.921338199209676        0.6352196985152721E-01
     2.929732849207405        0.6268502724735260E-01
     2.938127499205134        0.6185724345672314E-01
     2.946522149202863        0.6103850419709867E-01
     2.954916799200592        0.6022869649476900E-01
     2.963311449198321        0.5942770867024164E-01
     2.971706099196050        0.5863543032375577E-01
     2.980100749193779        0.5785175232089998E-01
     2.988495399191508        0.5707656677834222E-01
     2.996890049189237        0.5630976704966390E-01
     3.005284699186965        0.5555124771130909E-01
     3.013679349184694        0.5480090454865356E-01
     3.022073999182423        0.5405863454218043E-01
     3.030468649180152        0.5332433585376804E-01
     3.038863299177881        0.5259790781308230E-01
     3.047257949175610        0.5187925090410610E-01
     3.055652599173339        0.5116826675176474E-01
     3.064047249171068        0.5046485810867433E-01
     3.072441899168797        0.4976892884198737E-01
     3.080836549166526        0.4908038392037601E-01
     3.089231199164255        0.4839912940111710E-01
     3.097625849161984        0.4772507241729583E-01
     3.106020499159713        0.4705812116511329E-01
     3.114415149157442        0.4639818489131583E-01
     3.122809799155171        0.4574517388074455E-01
     3.131204449152900        0.4509899944398980E-01
     3.139599099150629        0.4445957390516374E-01
     3.147993749148358        0.4382681058977064E-01
     3.156388399146087        0.4320062381271701E-01
     3.164783049143816        0.4258092886641673E-01
     3.173177699141545        0.4196764200901617E-01
     3.181572349139274        0.4136068045271691E-01
     3.189966999137003        0.4075996235222525E-01
     3.198361649134732        0.4016540679331182E-01
     3.206756299132461        0.3957693378147623E-01
     3.215150949130190        0.3899446423072690E-01
     3.223545599127918        0.3841791995245299E-01
     3.231940249125647        0.3784722364443469E-01
     3.240334899123376        0.3728229887994379E-01
     3.248729549121105        0.3672307009695816E-01
     3.257124199118834        0.3616946258747459E-01
     3.265518849116563        0.3562140248693599E-01
     3.273913499114292        0.3507881676377023E-01
     3.282308149112021        0.3454163320902630E-01
     3.290702799109750        0.3400978042612363E-01
     3.299097449107479        0.3348318782068314E-01
     3.307492099105208        0.3296178559049362E-01
     3.315886749102937        0.3244550471556439E-01
     3.324281399100666        0.3193427694828179E-01
     3.332676049098395        0.3142803480367119E-01
     3.341070699096123        0.3092671154974234E-01
     3.349465349093852        0.3043024119796526E-01
     3.357859999091581        0.2993855849382481E-01
     3.366254649089310        0.2945159890748112E-01
     3.374649299087039        0.2896929862452181E-01
     3.383043949084768        0.2849159453681140E-01
     3.391438599082497        0.2801842423345030E-01
     3.399833249080226        0.2754972599181742E-01
     3.408227899077955        0.2708543876871390E-01
     3.416622549075684        0.2662550219158830E-01
     3.425017199073413        0.2616985654986954E-01
     3.433411849071142        0.2571844278639041E-01
     3.441806499068871        0.2527120248889837E-01
     3.450201149066600        0.2482807788166280E-01
     3.458595799064329        0.2438901181715659E-01
     3.466990449062058        0.2395394776784782E-01
     3.475385099059787        0.2352282981807147E-01
     3.483779749057516        0.2309560265598756E-01
     3.492174399055245        0.2267221156563112E-01
     3.500569049052974        0.2225260241903192E-01
     3.508963699050703        0.2183672166844251E-01
     3.517358349048432        0.2142451633863894E-01
     3.525752999046161        0.2101593401930592E-01
     3.534147649043890        0.2061092285750921E-01
     3.542542299041619        0.2020943155023395E-01
     3.550936949039348        0.1981140933702690E-01
     3.559331599037077        0.1941680599270732E-01
     3.567726249034805        0.1902557182015817E-01
     3.576120899032534        0.1863765764320039E-01
     3.584515549030263        0.1825301479953033E-01
     3.592910199027992        0.1787159513375487E-01
     3.601304849025721        0.1749335099049233E-01
     3.609699499023450        0.1711823520754991E-01
     3.618094149021179        0.1674620110917915E-01
     3.626488799018908        0.1637720249939323E-01
     3.634883449016637        0.1601119365537284E-01
     3.643278099014366        0.1564812932093902E-01
     3.651672749012095        0.1528796470009559E-01
     3.660067399009824        0.1493065545064544E-01
     3.668462049007553        0.1457615767787019E-01
     3.676856699005282        0.1422442792828397E-01
     3.685251349003011        0.1387542318346002E-01
     3.693645999000740        0.1352910085391800E-01
     3.702040648998469        0.1318541877308184E-01
     3.710435298996198        0.1284433519130155E-01
     3.718829948993926        0.1250580876993596E-01
     3.727224598991655        0.1216979857551328E-01
     3.735619248989384        0.1183626407394446E-01
     3.744013898987113        0.1150516512480337E-01
     3.752408548984842        0.1117646197567090E-01
     3.760803198982571        0.1085011525652986E-01
     3.769197848980300        0.1052608597423786E-01
     3.777592498978029        0.1020433550704988E-01
     3.785987148975758        0.9884825599201560E-02
     3.794381798973487        0.9567518355615118E-02
     3.802776448971216        0.9252376248427480E-02
     3.811171098968945        0.8939362419826603E-02
     3.819565748966674        0.8628442930325412E-02
     3.827960398964403        0.8319593747231990E-02
     3.836355048962132        0.8012812769713140E-02
     3.844749698959861        0.7708133522701029E-02
     3.853144348957590        0.7405636474058611E-02
     3.861538998955319        0.7105455641627360E-02
     3.869933648953048        0.6807780092462382E-02
     3.878328298950777        0.6512851116471194E-02
     3.886722948948506        0.6220956290522743E-02
     3.895117598946235        0.5932421633389160E-02
     3.903512248943963        0.5647602841131273E-02
     3.911906898941692        0.5366876336245464E-02
     3.920301548939421        0.5090630631250139E-02
     3.928696198937150        0.4819258321561865E-02
     3.937090848934879        0.4553148884773775E-02
     3.945485498932608        0.4292682366627705E-02
     3.953880148930337        0.4038223968903813E-02
     3.962274798928066        0.3790119512690392E-02
     3.970669448925795        0.3548691725274586E-02
     3.979064098923524        0.3314237284994767E-02
     3.987458748921253        0.3087024552072620E-02
     3.995853398918982        0.2867291912041391E-02
     4.004248048916711        0.2655246660023041E-02
     4.012642698914440        0.2451064357532477E-02
     4.021037348912169        0.2254888597836427E-02
     4.029431998909898        0.2066831120564960E-02
     4.037826648907627        0.1886972220868128E-02
     4.046221298905356        0.1715361402629525E-02
     4.054615948903085        0.1552018228810252E-02
     4.063010598900814        0.1396933324651545E-02
     4.071405248898543        0.1250069490816534E-02
     4.079799898896272        0.1111362883033156E-02
     4.088194548894000        0.9807242114350584E-03
     4.096589198891730        0.8580399048407138E-03
     4.104983848889458        0.7431731694120667E-03
     4.113378498887188        0.6359648411720104E-03
     4.121773148884916        0.5362338747348365E-03
     4.130167798882646        0.4437771979269693E-03
     4.138562448880374        0.3583684268606563E-03
     4.146957098878103        0.2797544051908385E-03
     4.155351748875832        0.2076471977599828E-03
     4.163746398873561        0.1417052838332434E-03
     4.172141048871290        0.8148418490087499E-04
     4.180535698869019        0.2625786897167728E-04
     4.188930348866748         0.000000000000000    
  0  2  2  0  0.000000   #orbital l, n, z, is_polarized, population
 500    0.5366907954632552E-02     2.678087069361643     # npts, delta, cutoff
     0.000000000000000        0.7172998178974553    
    0.5366907954632552E-02    0.7173887838092973    
    0.1073381590926510E-01    0.7176847654724462    
    0.1610072386389766E-01    0.7181778651553995    
    0.2146763181853021E-01    0.7188677556218012    
    0.2683453977316276E-01    0.7197539843508118    
    0.3220144772779531E-01    0.7208359706774542    
    0.3756835568242786E-01    0.7221130055749604    
    0.4293526363706041E-01    0.7235842518112977    
    0.4830217159169296E-01    0.7252487442291812    
    0.5366907954632551E-01    0.7271053901007712    
    0.5903598750095806E-01    0.7291529695451552    
    0.6440289545559062E-01    0.7313901360060909    
    0.6976980341022317E-01    0.7338154167904724    
    0.7513671136485572E-01    0.7364272136692039    
    0.8050361931948827E-01    0.7392238035426826    
    0.8587052727412083E-01    0.7422033391734404    
    0.9123743522875338E-01    0.7453638499886655    
    0.9660434318338593E-01    0.7487032429554771    
    0.1019712511380185        0.7522193035319206    
    0.1073381590926510        0.7559096966967070    
    0.1127050670472836        0.7597719680607542    