<preamble>

<basis_specs>
===============================================================================
Ne                   Z=  10    Mass=  20.180        Charge= 0.17977+309
Lmxo=2 Lmxkb= 1    BasisType=split      Semic=F
L=0  Nsemic=0  Cnfigmx=2
          i=1  nzeta=2  polorb=0  (2s)
            splnorm:   0.15000    
               vcte:    40.000    
               rinn:    2.8131    
               qcoe:    0.0000    
               qyuk:    0.0000    
               qwid:   0.10000E-01
                rcs:    3.1256      1.8824    
            lambdas:    1.0000      1.0000    
L=1  Nsemic=0  Cnfigmx=2
          i=1  nzeta=2  polorb=1  (2p)  (to be polarized perturbatively)
            splnorm:   0.15000    
               vcte:    40.000    
               rinn:    3.5075    
               qcoe:    0.0000    
               qyuk:    0.0000    
               qwid:   0.10000E-01
                rcs:    3.8972      2.3222    
            lambdas:    1.0000      1.0000    
L=2  Nsemic=0  Cnfigmx=3
          i=1  nzeta=0  polorb=0  (3d)  (perturbative polarization orbital) (from 2p)
-------------------------------------------------------------------------------
L=0  Nkbl=1  erefs: 0.17977+309
L=1  Nkbl=1  erefs: 0.17977+309
===============================================================================
</basis_specs>

<pseudopotential_header>
 Ne pb nrl nc  
 ONCVPSP-3.2017-10-31Hamann's oncvpsp                        
 2s 2.00  r= 1.31/2p 6.00  r= 1.71/                                     2s:2p:
</pseudopotential_header>
</preamble>
Ne                            # Symbol
Ne                            # Label
   10                         # Atomic number
     8.00000000000                             # Valence charge
     20.1800000000        # Mass 
     78.9286583592        # Self energy 
   2   5                      # Lmax for basis, no. of nl orbitals 
   1   4                      # Lmax for projectors, no. of nl KB projectors
# PAOs:__________________________
  0  2  1  0  2.000000   #orbital l, n, z, is_polarized, population
 500    0.6263785709974588E-02     3.125629069277319     # npts, delta, cutoff
     0.000000000000000         2.404288728193588    
    0.6263785709974588E-02     2.404164945993107    
    0.1252757141994918E-01     2.403889562852450    
    0.1879135712992376E-01     2.403430676251654    
    0.2505514283989835E-01     2.402788350199062    
    0.3131892854987294E-01     2.401962689736031    
    0.3758271425984753E-01     2.400953832481828    
    0.4384649996982212E-01     2.399761947512817    
    0.5011028567979670E-01     2.398387235176867    
    0.5637407138977129E-01     2.396829927131787    
    0.6263785709974588E-01     2.395090286464999    
    0.6890164280972047E-01     2.393168607854752    
    0.7516542851969506E-01     2.391065217759039    
    0.8142921422966964E-01     2.388780474625828    
    0.8769299993964423E-01     2.386314769121509    
    0.9395678564961882E-01     2.383668524375212    
    0.1002205713595934         2.380842196237075    
    0.1064843570695680         2.377836273548982    
    0.1127481427795426         2.374651278425997    
    0.1190119284895172         2.371287766547126    
    0.1252757141994918         2.367746327453505    
    0.1315394999094663         2.364027584852544    
    0.1378032856194409         2.360132196926459    
    0.1440670713294155         2.356060856643163    
    0.1503308570393901         2.351814292067953    
    0.1565946427493647         2.347393266674296    
    0.1628584284593393         2.342798579651479    
    0.1691222141693139         2.338031066207917    
    0.1753859998792885         2.333091597867568    
    0.1816497855892630         2.327981082758086    
    0.1879135712992376         2.322700465888758    
    0.1941773570092122         2.317250729416071    
    0.2004411427191868         2.311632892895528    
    0.2067049284291614         2.305848013517469    
    0.2129687141391360         2.299897186325290    
    0.2192324998491106         2.293781544414416    
    0.2254962855590852         2.287502259109957    
    0.2317600712690598         2.281060540121637    
    0.2380238569790343         2.274457635674410    
    0.2442876426890089         2.267694832612796    
    0.2505514283989835         2.260773456477976    
    0.2568152141089581         2.253694871555709    
    0.2630789998189327         2.246460480894021    
    0.2693427855289073         2.239071726289249    
    0.2756065712388819         2.231530088239159    
    0.2818703569488564         2.223837085862249    
    0.2881341426588310         2.215994276781895    
    0.2943979283688056         2.208003256974663    
    0.3006617140787802         2.199865660581831    
    0.3069254997887548         2.191583159683345    
    0.3131892854987294         2.183157464033692    
    0.3194530712087040         2.174590320759021    
    0.3257168569186786         2.165883514015210    
    0.3319806426286532         2.157038864606482    
    0.3382444283386277         2.148058229564395    
    0.3445082140486023         2.138943501687107    
    0.3507719997585769         2.129696609038916    
    0.3570357854685515         2.120319514410218    
    0.3632995711785261         2.110814214738116    
    0.3695633568885007         2.101182740487984    
    0.3758271425984753         2.091427154996480    
    0.3820909283084499         2.081549553776551    
    0.3883547140184244         2.071552063785063    
    0.3946184997283990         2.061436842653834    
    0.4008822854383736         2.051206077884932    
    0.4071460711483482         2.040861986011167    
    0.4134098568583228         2.030406811722841    
    0.4196736425682974         2.019842826961873    
    0.4259374282782720         2.009172329984517    
    0.4322012139882466         1.998397644393965    
    0.4384649996982212         1.987521118144217    
    0.4447287854081957         1.976545122516621    
    0.4509925711181703         1.965472051070641    
    0.4572563568281449         1.954304318570354    
    0.4635201425381195         1.943044359888350    
    0.4697839282480941         1.931694628888666    
    0.4760477139580687         1.920257597290477    
    0.4823114996680433         1.908735753514295    
    0.4885752853780179         1.897131601512452    
    0.4948390710879924         1.885447659585676    
    0.5011028567979671         1.873686459187568    
    0.5073666425079416         1.861850544590819    
    0.5136304282179162         1.849942470197969    
    0.5198942139278908         1.837964798465219    
    0.5261579996378654         1.825920101326875    
    0.5324217853478400         1.813810957775873    
    0.5386855710578146         1.801639952634499    
    0.5449493567677891         1.789409675325905    
    0.5512131424777638         1.777122718648160    
    0.5574769281877383         1.764781677552608    
    0.5637407138977129         1.752389147928221    
    0.5700044996076875         1.739947725393628    
    0.5762682853176621         1.727460004098456    
    0.5825320710276367         1.714928575535522    
    0.5887958567376113         1.702356027365419    
    0.5950596424475858         1.689744942254961    
    0.6013234281575605         1.677097896730854    
    0.6075872138675350         1.664417460049952    
    0.6138509995775097         1.651706193087344    
    0.6201147852874842         1.638966647243475    
    0.6263785709974588         1.626201363371385    
    0.6326423567074334         1.613412870725155    
    0.6389061424174080         1.600603685930456    
    0.6451699281273825         1.587776311978145    
    0.6514337138373572         1.574933237241656    
    0.6576974995473317         1.562076934518912    
    0.6639612852573064         1.549209860099411    
    0.6702250709672809         1.536334452856992    
    0.6764888566772554         1.523453133368799    
    0.6827526423872301         1.510568303060760    
    0.6890164280972046         1.497682343379937    
    0.6952802138071792         1.484797614993944    
    0.7015439995171538         1.471916457017535    
    0.7078077852271284         1.459041186266482    
    0.7140715709371031         1.446174096538661    
    0.7203353566470776         1.433317457922301    
    0.7265991423570521         1.420473516131240    
    0.7328629280670268         1.407644491866853    
    0.7391267137770013         1.394832580206493    
    0.7453904994869760         1.382039950018008    
    0.7516542851969505         1.369268743399843    
    0.7579180709069251         1.356521075146391    
    0.7641818566168997         1.343799032237970    
    0.7704456423268743         1.331104673354826    
    0.7767094280368488         1.318440028414572    
    0.7829732137468235         1.305807098132409    
    0.7892369994567980         1.293207853603432    
    0.7955007851667727         1.280644235906176    
    0.8017645708767472         1.268118155726763    
    0.8080283565867218         1.255631493002842    
    0.8142921422966964         1.243186096586456    
    0.8205559280066710         1.230783783925068    
    0.8268197137166456         1.218426340759893    
    0.8330834994266202         1.206115520840706    
    0.8393472851365947         1.193853045656287    
    0.8456110708465694         1.181640604179678    
    0.8518748565565439         1.169479852627434    
    0.8581386422665185         1.157372414232007    
    0.8644024279764931         1.145319879026531    
    0.8706662136864677         1.133323803641178    
    0.8769299993964423         1.121385711110350    
    0.8831937851064169         1.109507090689980    
    0.8894575708163914         1.097689397684237    
    0.8957213565263661         1.085934053280979    
    0.9019851422363406         1.074242444395321    
    0.9082489279463153         1.062615923520712    
    0.9145127136562898         1.051055808587002    
    0.9207764993662644         1.039563382824972    
    0.9270402850762390         1.028139894636895    
    0.9333040707862136         1.016786557472693    
    0.9395678564961881         1.005504549711344    
    0.9458316422061628        0.9942950145472046    
    0.9520954279161373        0.9831590598810582    
    0.9583592136261120        0.9720977582155826    
    0.9646229993360865        0.9611121465551770    
    0.9708867850460611        0.9502032263099974    
    0.9771505707560357        0.9393719632041755    
    0.9834143564660103        0.9286192871882172    
    0.9896781421759848        0.9179460923556374    
    0.9959419278859595        0.9073532368639805    
     1.002205713595934        0.8968415428603120    
     1.008469499305909        0.8864117964114885    
     1.014733285015883        0.8760647474393431    
     1.020997070725858        0.8658011096613009    
     1.027260856435832        0.8556215605364427    
     1.033524642145807        0.8455267412177532    
     1.039788427855782        0.8355172565107011    
     1.046052213565756        0.8255936748389123    
     1.052315999275731        0.8157565282170578    
     1.058579784985705        0.8060063122318987    
     1.064843570695680        0.7963434860316290    
     1.071107356405655        0.7867684723245240    
     1.077371142115629        0.7772816573870784    
     1.083634927825604        0.7678833910826914    
     1.089898713535578        0.7585739868910695    
     1.096162499245553        0.7493537219494751    
     1.102426284955528        0.7402228371059899    
     1.108690070665502        0.7311815369859266    
     1.114953856375477        0.7222299900716024    
     1.121217642085451        0.7133683287965475    
     1.127481427795426        0.7045966496544219    
     1.133745213505400        0.6959150133235797    
     1.140008999215375        0.6873234448076927    
     1.146272784925350        0.6788219335931459    
     1.152536570635324        0.6704104338237756    
     1.158800356345299        0.6620888644934456    
     1.165064142055273        0.6538571096571300    
     1.171327927765248        0.6457150186607831    
     1.177591713475223        0.6376624063907734    
     1.183855499185197        0.6296990535429200    
     1.190119284895172        0.6218247069119350    
     1.196383070605146        0.6140390797012475    
     1.202646856315121        0.6063418518537943    
     1.208910642025095        0.5987326704038705    
     1.215174427735070        0.5912111498503058    
     1.221438213445045        0.5837768725511672    
     1.227701999155019        0.5764293891399507    
     1.233965784864994        0.5691682189635233    
     1.240229570574968        0.5619928505416123    
     1.246493356284943        0.5549027420479545    
     1.252757141994918        0.5478973218128929    
     1.259020927704892        0.5409759888473302    
     1.265284713414867        0.5341381133877080    
     1.271548499124841        0.5273830374340297    
     1.277812284834816        0.5207100752652436    
     1.284076070544790        0.5141185143295430    
     1.290339856254765        0.5076076162809060    
     1.296603641964740        0.5011766168127735    
     1.302867427674714        0.4948247247522494    
     1.309131213384689        0.4885511231962927    
     1.315394999094663        0.4823549750355745    
     1.321658784804638        0.4762354301386141    
     1.327922570514613        0.4701916330543066    
     1.334186356224587        0.4642227301880310    
     1.340450141934562        0.4583278749446680    
     1.346713927644536        0.4525062280337018    
     1.352977713354511        0.4467569559022350    
     1.359241499064486        0.4410792299356787    
     1.365505284774460        0.4354722270446919    
     1.371769070484435        0.4299351301439641    
     1.378032856194409        0.4244671282388138    
     1.384296641904384        0.4190674164808205    
     1.390560427614358        0.4137351962682517    
     1.396824213324333        0.4084696753426997    
     1.403087999034308        0.4032700678756372    
     1.409351784744282        0.3981355945468400    
     1.415615570454257        0.3930654826151789    
     1.421879356164231        0.3880589659819447    
     1.428143141874206        0.3831152852474733    
     1.434406927584181        0.3782336877610287    
     1.440670713294155        0.3734134276643856    
     1.446934499004130        0.3686537659296104    
     1.453198284714104        0.3639539703909982    
     1.459462070424079        0.3593133157717119    
     1.465725856134054        0.3547310837053720    
     1.471989641844028        0.3502065627526211    
     1.478253427554003        0.3457390484132595    
     1.484517213263977        0.3413278431339754    
     1.490780998973952        0.3369722563118039    
     1.497044784683927        0.3326716042938782    
     1.503308570393901        0.3284252103733530    
     1.509572356103876        0.3242324047817577    
     1.515836141813850        0.3200925246781973    
     1.522099927523825        0.3160049141352784    
     1.528363713233799        0.3119689241220828    
     1.534627498943774        0.3079839124844315    
     1.540891284653749        0.3040492439224204    
     1.547155070363723        0.3001642899654794    
     1.553418856073698        0.2963284289451606    
     1.559682641783672        0.2925410459656373    
     1.565946427493647        0.2888015328721705    
     1.572210213203622        0.2851092882176557    
     1.578473998913596        0.2814637172273052    
     1.584737784623571        0.2778642317616349    
     1.591001570333545        0.2743102502778878    
     1.597265356043520        0.2708011977899188    
     1.603529141753494        0.2673365058267142    
     1.609792927463469        0.2639156123896235    
     1.616056713173444        0.2605379619083729    
     1.622320498883418        0.2572030051959588    
     1.628584284593393        0.2539101994025381    
     1.634848070303367        0.2506590079683303    
     1.641111856013342        0.2474489005756608    
     1.647375641723317        0.2442793531003720    
     1.653639427433291        0.2411498475622710    
     1.659903213143266        0.2380598720738581    
     1.666166998853240        0.2350089207912918    
     1.672430784563215        0.2319964938625988    
     1.678694570273189        0.2290220973740738    
     1.684958355983164        0.2260852433007426    
     1.691222141693139        0.2231854494519954    
     1.697485927403113        0.2203222394212209    
     1.703749713113088        0.2174951425289967    
     1.710013498823062        0.2147036937717677    
     1.716277284533037        0.2119474337695625    
     1.722541070243012        0.2092259087077581    
     1.728804855952986        0.2065386702772455    
     1.735068641662961        0.2038852756251966    
     1.741332427372935        0.2012652873129645    
     1.747596213082910        0.1986782732539007    
     1.753859998792885        0.1961238066661105    
     1.760123784502859        0.1936014659956789    
     1.766387570212834        0.1911108348816741    
     1.772651355922808        0.1886515020967582    
     1.778915141632783        0.1862230614943250    
     1.785178927342758        0.1838251119542856    
     1.791442713052732        0.1814572573293166    
     1.797706498762707        0.1791191063913390    
     1.803970284472681        0.1768102727780543    
     1.810234070182656        0.1745303749400773    
     1.816497855892631        0.1722790360879942    
     1.822761641602605        0.1700558841397267    
     1.829025427312580        0.1678605516681670    
     1.835289213022554        0.1656926758490797    
     1.841552998732529        0.1635518984092826    
     1.847816784442503        0.1614378655751285    
     1.854080570152478        0.1593502280212950    
     1.860344355862453        0.1572886408198952    
     1.866608141572427        0.1552527633899049    
     1.872871927282402        0.1532422594469437    
     1.879135712992376        0.1512567969533950    
     1.885399498702351        0.1492960480688781    
     1.891663284412326        0.1473596891010830    
     1.897927070122300        0.1454474004569792    
     1.904190855832275        0.1435588665943971    
     1.910454641542249        0.1416937759739802    
     1.916718427252224        0.1398518210115374    
     1.922982212962199        0.1380326980307783    
     1.929245998672173        0.1362361072164440    
     1.935509784382148        0.1344617525678274    
     1.941773570092122        0.1327093418527133    
     1.948037355802097        0.1309785865617120    
     1.954301141512071        0.1292692018629968    
     1.960564927222046        0.1275809065574547    
     1.966828712932021        0.1259134230342551    
     1.973092498641995        0.1242664772268275    
     1.979356284351970        0.1226397985692406    
     1.985620070061944        0.1210331199530158    
     1.991883855771919        0.1194461776843508    
     1.998147641481893        0.1178787114417598    
     2.004411427191868        0.1163304642341156    
     2.010675212901843        0.1148011823591360    
     2.016938998611817        0.1132906153622686    
     2.023202784321792        0.1117985159959995    
     2.029466570031766        0.1103246401795596    
     2.035730355741741        0.1088687469590750    
     2.041994141451716        0.1074305984681160    
     2.048257927161690        0.1060099598886548    
     2.054521712871665        0.1046065994124325    
     2.060785498581639        0.1032202882027551    
     2.067049284291614        0.1018508003566837    
     2.073313070001589        0.1004979128676302    
     2.079576855711563        0.9916140558835389E-01
     2.085840641421538        0.9784106119438093E-01
     2.092104427131512        0.9653666514781090E-01
     2.098368212841487        0.9524800566151551E-01
     2.104631998551461        0.9397487366373967E-01
     2.110895784261436        0.9271706276310811E-01
     2.117159569971411        0.9147436921401370E-01
     2.123423355681385        0.9024659188238827E-01
     2.129687141391360        0.8903353221186465E-01
     2.135950927101335        0.8783499419033593E-01
     2.142214712811309        0.8665078431688492E-01
     2.148478498521284        0.8548071156908635E-01
     2.154742284231258        0.8432458737068657E-01
     2.161006069941233        0.8318222555967381E-01
     2.167269855651207        0.8205344235670262E-01
     2.173533641361182        0.8093805633388658E-01
     2.179797427071156        0.7983588838394656E-01
     2.186061212781131        0.7874676168974616E-01
     2.192324998491106        0.7767050169416609E-01
     2.198588784201081        0.7660693607033894E-01
     2.204852569911055        0.7555589469221791E-01
     2.211116355621030        0.7451720960552853E-01
     2.217380141331004        0.7349071499904378E-01
     2.223643927040979        0.7247624717621326E-01
     2.229907712750953        0.7147364452709951E-01
     2.236171498460928        0.7048274750069874E-01
     2.242435284170902        0.6950339857756729E-01
     2.248699069880877        0.6853544224278661E-01
     2.254962855590851        0.6757872495923296E-01
     2.261226641300826        0.6663309514120065E-01
     2.267490427010801        0.6569840312833458E-01
     2.273754212720775        0.6477450115987936E-01
     2.280017998430750        0.6386124334923547E-01
     2.286281784140725        0.6295848565882441E-01
     2.292545569850699        0.6206608587528420E-01
     2.298809355560674        0.6118390358494898E-01
     2.305073141270648        0.6031180014963912E-01
     2.311336926980623        0.5944963868272322E-01
     2.317600712690597        0.5859728402551855E-01
     2.323864498400572        0.5775460272395493E-01
     2.330128284110547        0.5692146300553894E-01
     2.336392069820521        0.5609773475658015E-01
     2.342655855530496        0.5528328949972713E-01
     2.348919641240470        0.5447800037177627E-01
     2.355183426950445        0.5368174210175196E-01
     2.361447212660420        0.5289439098926180E-01
     2.367710998370394        0.5211582488310344E-01
     2.373974784080369        0.5134592316017596E-01
     2.380238569790343        0.5058456670462864E-01
     2.386502355500318        0.4983163788728225E-01
     2.392766141210293        0.4908702054528480E-01
     2.399029926920267        0.4835059996205163E-01
     2.405293712630242        0.4762226284744769E-01
     2.411557498340216        0.4690189731821605E-01
     2.417821284050191        0.4618939287865644E-01
     2.424085069760165        0.4548464040152388E-01
     2.430348855470140        0.4478753210920964E-01
     2.436612641180115        0.4409796155513151E-01
     2.442876426890089        0.4341582360536880E-01
     2.449140212600064        0.4274101442051567E-01
     2.455403998310039        0.4207343143777303E-01
     2.461667784020013        0.4141297335327713E-01
     2.467931569729988        0.4075954010463678E-01
     2.474195355439962        0.4011303285370395E-01
     2.480459141149937        0.3947335396953242E-01
     2.486722926859911        0.3884040701159355E-01
     2.492986712569886        0.3821409671318249E-01
     2.499250498279860        0.3759432896503830E-01
     2.505514283989835        0.3698101079917480E-01
     2.511778069699810        0.3637405037289297E-01
     2.518041855409784        0.3577335695303795E-01
     2.524305641119759        0.3517884090042674E-01
     2.530569426829734        0.3459041365448327E-01
     2.536833212539708        0.3400798771806335E-01
     2.543096998249683        0.3343147664246378E-01
     2.549360783959657        0.3286079501264851E-01
     2.555624569669632        0.3229585843264010E-01
     2.561888355379606        0.3173658351110671E-01
     2.568152141089581        0.3118288784712006E-01
     2.574415926799555        0.3063469001609937E-01
     2.580679712509530        0.3009190955594696E-01
     2.586943498219505        0.2955446695334282E-01
     2.593207283929480        0.2902228363022449E-01
     2.599471069639454        0.2849528193042119E-01
     2.605734855349429        0.2797338510647192E-01
     2.611998641059403        0.2745651730661314E-01
     2.618262426769378        0.2694460356192200E-01
     2.624526212479352        0.2643756977362948E-01
     2.630789998189327        0.2593534270057896E-01
     2.637053783899301        0.2543784994685851E-01
     2.643317569609276        0.2494501994959013E-01
     2.649581355319250        0.2445678196686437E-01
     2.655845141029225        0.2397306606583536E-01
     2.662108926739200        0.2349380311095088E-01
     2.668372712449175        0.2301892475234498E-01
     2.674636498159149        0.2254836341437723E-01
     2.680900283869124        0.2208205228430853E-01
     2.687164069579098        0.2161992530112569E-01
     2.693427855289073        0.2116191714449504E-01
     2.699691640999047        0.2070796322386250E-01
     2.705955426709022        0.2025799966769647E-01
     2.712219212418996        0.1981196331285499E-01
     2.718482998128971        0.1936979169409139E-01
     2.724746783838946        0.1893142303368588E-01
     2.731010569548920        0.1849679623120410E-01
     2.737274355258895        0.1806585085339709E-01
     2.743538140968869        0.1763852712421466E-01
     2.749801926678844        0.1721476591494661E-01
     2.756065712388819        0.1679450873448696E-01
     2.762329498098793        0.1637769771970610E-01
     2.768593283808768        0.1596427562596511E-01
     2.774857069518742        0.1555418581773095E-01
     2.781120855228717        0.1514737225931017E-01
     2.787384640938692        0.1474377950570187E-01
     2.793648426648666        0.1434335269354623E-01
     2.799912212358641        0.1394603753220613E-01
     2.806175998068615        0.1355178029494554E-01
     2.812439783778590        0.1316052781021668E-01
     2.818703569488564        0.1277222745305619E-01
     2.824967355198539        0.1238682713657724E-01
     2.831231140908514        0.1200427530363154E-01
     2.837494926618488        0.1162452092959950E-01
     2.843758712328463        0.1124751380319155E-01
     2.850022498038438        0.1087320663600560E-01
     2.856286283748412        0.1050156164347859E-01
     2.862550069458387        0.1013256191574964E-01
     2.868813855168361        0.9766224452016125E-02
     2.875077640878336        0.9402611066422538E-02
     2.881341426588310        0.9041834954258653E-02
     2.887605212298285        0.8684062512631640E-02
     2.893868998008259        0.8329511117373010E-02
     2.900132783718234        0.7978443970842601E-02
     2.906396569428209        0.7631163127234710E-02
     2.912660355138184        0.7288001610202827E-02
     2.918924140848158        0.6949315301871158E-02
     2.925187926558133        0.6615475067607385E-02
     2.931451712268107        0.6286859409283580E-02
     2.937715497978082        0.5963847812606668E-02
     2.943979283688056        0.5646814864805891E-02
     2.950243069398031        0.5336125159143037E-02
     2.956506855108005        0.5032128964452745E-02
     2.962770640817980        0.4735158614916016E-02
     2.969034426527954        0.4445525562715775E-02
     2.975298212237929        0.4163518030577918E-02
     2.981561997947904        0.3889399200025193E-02
     2.987825783657879        0.3623405872717378E-02
     2.994089569367853        0.3365747545346270E-02
     3.000353355077828        0.3116605842386962E-02
     3.006617140787802        0.2876134255055569E-02
     3.012880926497777        0.2644458138640446E-02
     3.019144712207751        0.2421674923724728E-02
     3.025408497917726        0.2207854499356004E-02
     3.031672283627700        0.2003039727654335E-02
     3.037936069337675        0.1807247049185295E-02
     3.044199855047650        0.1620467135943601E-02
     3.050463640757624        0.1442665542688101E-02
     3.056727426467599        0.1273783295426966E-02
     3.062991212177574        0.1113737333836443E-02
     3.069254997887548        0.9624206841972571E-03
     3.075518783597523        0.8197021643925171E-03
     3.081782569307497        0.6854252764552040E-03
     3.088046355017472        0.5594056401476518E-03
     3.094310140727446        0.4414256440988916E-03
     3.100573926437421        0.3312233010732252E-03
     3.106837712147395        0.2284674001184394E-03
     3.113101497857370        0.1326938757770838E-03
     3.119365283567345        0.4308034768279712E-04
     3.125629069277319         0.000000000000000    
  0  2  2  0  0.000000   #orbital l, n, z, is_polarized, population
 500    0.3772283819198326E-02     1.882369625779965     # npts, delta, cutoff
     0.000000000000000         3.043366330565138    
    0.3772283819198326E-02     3.043266826382895    
    0.7544567638396653E-02     3.043117154255190    
    0.1131685145759498E-01     3.042867799154545    
    0.1508913527679331E-01     3.042518743769743    
    0.1886141909599163E-01     3.042070003463150    
    0.2263370291518996E-01     3.041521604281311    
    0.2640598673438829E-01     3.040873579819826    
    0.3017827055358661E-01     3.040125970445832    
    0.3395055437278494E-01     3.039278823046777    
    0.3772283819198326E-01     3.038332190937769    
    0.4149512201118159E-01     3.037286133827526    
    0.4526740583037991E-01     3.036140717809850    
    0.4903968964957824E-01     3.034896015367611    
    0.5281197346877657E-01     3.033552105383687    
    0.5658425728797489E-01     3.032109073156391    
    0.6035654110717322E-01     3.030567010417998    
    0.6412882492637155E-01     3.028926015355589    
    0.6790110874556987E-01     3.027186192633946    
    0.7167339256476821E-01     3.025347653420086    
    0.7544567638396653E-01     3.023410515409187    
    0.7921796020316485E-01     3.021374902852059    