<preamble>

<basis_specs>
===============================================================================
Ni                   Z=  28    Mass=  58.693        Charge= 0.17977+309
Lmxo=2 Lmxkb= 2    BasisType=split      Semic=T
L=0  Nsemic=1  Cnfigmx=4
          i=1  nzeta=1  polorb=0  (3s)  (semicore shell)
            splnorm:   0.15000    
               vcte:    40.000    
               rinn:    2.0775    
               qcoe:    0.0000    
               qyuk:    0.0000    
               qwid:   0.10000E-01
                rcs:    2.3083    
            lambdas:    1.0000    
          i=2  nzeta=2  polorb=0  (4s)  (to be polarized non-perturbatively)
            splnorm:   0.15000    
               vcte:    40.000    
               rinn:    5.9296    
               qcoe:    0.0000    
               qyuk:    0.0000    
               qwid:   0.10000E-01
                rcs:    6.5884      4.6120    
            lambdas:    1.0000      1.0000    
L=1  Nsemic=1  Cnfigmx=4
          i=1  nzeta=1  polorb=0  (3p)  (semicore shell)
            splnorm:   0.15000    
               vcte:    40.000    
               rinn:    2.3085    
               qcoe:    0.0000    
               qyuk:    0.0000    
               qwid:   0.10000E-01
                rcs:    2.5624    
            lambdas:    1.0000    
          i=2  nzeta=1  polorb=0  (4p)  (non-perturbative polarization shell)
            splnorm:   0.15000    
               vcte:    40.000    
               rinn:    5.9355    
               qcoe:    0.0000    
               qyuk:    0.0000    
               qwid:   0.10000E-01
                rcs:    6.5884    
            lambdas:    1.0000    
L=2  Nsemic=0  Cnfigmx=3
          i=1  nzeta=2  polorb=0  (3d)
            splnorm:   0.15000    
               vcte:    40.000    
               rinn:    3.6694    
               qcoe:    0.0000    
               qyuk:    0.0000    
               qwid:   0.10000E-01
                rcs:    4.0730      2.4029    
            lambdas:    1.0000      1.0000    
-------------------------------------------------------------------------------
L=0  Nkbl=2  erefs: 0.17977+309 0.17977+309
L=1  Nkbl=2  erefs: 0.17977+309 0.17977+309
L=2  Nkbl=1  erefs: 0.17977+309
===============================================================================
</basis_specs>

<pseudopotential_header>
 Ni pb nrl pcec
 ONCVPSP-3.2017-10-31Hamann's oncvpsp                        
 3s 2.00  r= 1.26/3p 6.00  r= 1.35/3d 8.00  r= 1.66/                    3s:3p:3d:4s:
</pseudopotential_header>
</preamble>
Ni                            # Symbol
Ni                            # Label
   28                         # Atomic number
     18.0000000000                             # Valence charge
     58.6930000000        # Mass 
     425.385921221        # Self energy 
   2   7                      # Lmax for basis, no. of nl orbitals 
   2   6                      # Lmax for projectors, no. of nl KB projectors
# PAOs:__________________________
  0  3  1  0  2.000000   #orbital l, n, z, is_polarized, population
 500    0.4625831519620954E-02     2.308289928290856     # npts, delta, cutoff
     0.000000000000000         2.735240573137387    
    0.4625831519620954E-02     2.735125256774146    
    0.9251663039241909E-02     2.735024742537671    
    0.1387749455886286E-01     2.734857276468540    
    0.1850332607848382E-01     2.734622723361697    
    0.2312915759810477E-01     2.734320947299291    
    0.2775498911772573E-01     2.733951782229470    
    0.3238082063734668E-01     2.733515027930872    
    0.3700665215696763E-01     2.733010449186726    
    0.4163248367658859E-01     2.732437775704362    
    0.4625831519620954E-01     2.731796702287136    
    0.5088414671583050E-01     2.731086889124144    
    0.5550997823545145E-01     2.730307962152622    
    0.6013580975507241E-01     2.729459513475540    
    0.6476164127469336E-01     2.728541101826619    
    0.6938747279431431E-01     2.727552253079027    
    0.7401330431393527E-01     2.726492460795536    
    0.7863913583355622E-01     2.725361186818914    
    0.8326496735317718E-01     2.724157861901459    
    0.8789079887279813E-01     2.722881886372985    
    0.9251663039241909E-01     2.721532630846482    
    0.9714246191204004E-01     2.720109436960822    
    0.1017682934316610         2.718611618159838    
    0.1063941249512819         2.717038460507080    
    0.1110199564709029         2.715389223535581    
    0.1156457879905239         2.713663141131923    
    0.1202716195101448         2.711859422453830    
    0.1248974510297658         2.709977252880560    
    0.1295232825493867         2.708015794995269    
    0.1341491140690077         2.705974189598515    
    0.1387749455886286         2.703851556752080    
    0.1434007771082496         2.701646996852171    
    0.1480266086278705         2.699359591731094    
    0.1526524401474915         2.696988405786477    
    0.1572782716671124         2.694532487137000    
    0.1619041031867334         2.691990868803663    
    0.1665299347063544         2.689362569915533    
    0.1711557662259753         2.686646596938888    
    0.1757815977455963         2.683841944928642    
    0.1804074292652172         2.680947598800942    
    0.1850332607848382         2.677962534625763    
    0.1896590923044591         2.674885720938287    
    0.1942849238240801         2.671716120067877    
    0.1989107553437010         2.668452689483378    
    0.2035365868633220         2.665094383153514    
    0.2081624183829429         2.661640152921002    
    0.2127882499025639         2.658088949889148    
    0.2174140814221849         2.654439725819559    
    0.2220399129418058         2.650691434539552    
    0.2266657444614268         2.646843033357936    
    0.2312915759810477         2.642893484487761    
    0.2359174075006687         2.638841756474552    
    0.2405432390202896         2.634686825628640    
    0.2451690705399106         2.630427677460120    
    0.2497949020595315         2.626063308114935    
    0.2544207335791525         2.621592725810654    
    0.2590465650987734         2.617014952270404    
    0.2636723966183944         2.612329024153458    
    0.2682982281380153         2.607533994480982    
    0.2729240596576363         2.602628934055411    
    0.2775498911772573         2.597612932871923    
    0.2821757226968782         2.592485101520472    
    0.2868015542164992         2.587244572576911    
    0.2914273857361201         2.581890501981574    
    0.2960532172557411         2.576422070403896    
    0.3006790487753620         2.570838484591481    
    0.3053048802949830         2.565138978702130    
    0.3099307118146040         2.559322815617318    
    0.3145565433342249         2.553389288235637    
    0.3191823748538458         2.547337720744697    
    0.3238082063734668         2.541167469870051    
    0.3284340378930878         2.534877926099664    
    0.3330598694127087         2.528468514882507    
    0.3376857009323296         2.521938697799880    
    0.3423115324519506         2.515287973708054    
    0.3469373639715716         2.508515879850890    
    0.3515631954911925         2.501621992941069    
    0.3561890270108135         2.494605930208690    
    0.3608148585304344         2.487467350415908    
    0.3654406900500554         2.480205954836369    
    0.3700665215696763         2.472821488198308    
    0.3746923530892973         2.465313739590056    
    0.3793181846089183         2.457682543326902    
    0.3839440161285392         2.449927779778182    
    0.3885698476481602         2.442049376153569    
    0.3931956791677811         2.434047307247564    
    0.3978215106874021         2.425921596141260    
    0.4024473422070231         2.417672314860433    
    0.4070731737266440         2.409299584989169    
    0.4116990052462649         2.400803578238170    
    0.4163248367658859         2.392184516967046    
    0.4209506682855069         2.383442674659854    
    0.4255764998051278         2.374578376353289    
    0.4302023313247487         2.365591999016926    
    0.4348281628443697         2.356483971885004    
    0.4394539943639907         2.347254776739287    
    0.4440798258836116         2.337904948142606    
    0.4487056574032325         2.328435073622738    
    0.4533314889228535         2.318845793806349    
    0.4579573204424745         2.309137802502789    
    0.4625831519620954         2.299311846737580    
    0.4672089834817164         2.289368726735523    
    0.4718348150013373         2.279309295853373    
    0.4764606465209583         2.269134460462163    
    0.4810864780405792         2.258845179779249    
    0.4857123095602002         2.248442465650235    
    0.4903381410798212         2.237927382281062    
    0.4949639725994421         2.227301045947505    
    0.4995898041190631         2.216564624796675    
    0.5042156356386840         2.205719337759333    
    0.5088414671583050         2.194766454818302    
    0.5134672986779260         2.183707296241216    
    0.5180931301975469         2.172543232022213    
    0.5227189617171678         2.161275681276727    
    0.5273447932367887         2.149906111590516    
    0.5319706247564098         2.138436038323712    
    0.5365964562760307         2.126867023870754    
    0.5412222877956516         2.115200676877072    
    0.5458481193152727         2.103438651413467    
    0.5504739508348936         2.091582646109212    
    0.5550997823545145         2.079634403244933    
    0.5597256138741354         2.067595707806330    
    0.5643514453937564         2.055468386499919    
    0.5689772769133774         2.043254306731995    
    0.5736031084329983         2.030955375552018    
    0.5782289399526193         2.018573538561728    
    0.5828547714722403         2.006110778791296    
    0.5874806029918612         1.993569115543870    
    0.5921064345114821         1.980950603209886    
    0.5967322660311031         1.968257330052599    
    0.6013580975507240         1.955491416966249    
    0.6059839290703450         1.942655016208361    
    0.6106097605899660         1.929750310107666    
    0.6152355921095869         1.916779509749191    
    0.6198614236292079         1.903744853638056    
    0.6244872551488289         1.890648606343508    
    0.6291130866684498         1.877493057124821    
    0.6337389181880707         1.864280518540643    
    0.6383647497076916         1.851013325043360    
    0.6429905812273127         1.837693831560095    
    0.6476164127469336         1.824324412061994    
    0.6522422442665545         1.810907458123354    
    0.6568680757861756         1.797445377472272    
    0.6614939073057965         1.783940592534358    
    0.6661197388254174         1.770395538971176    
    0.6707455703450383         1.756812664214984    
    0.6753714018646593         1.743194426001365    
    0.6799972333842803         1.729543290901330    
    0.6846230649039012         1.715861732854451    
    0.6892488964235222         1.702152231704557    
    0.6938747279431432         1.688417271739538    
    0.6985005594627641         1.674659340236734    
    0.7031263909823851         1.660880926015406    
    0.7077522225020060         1.647084517997734    
    0.7123780540216269         1.633272603779771    
    0.7170038855412479         1.619447668213724    
    0.7216297170608689         1.605612192002947    
    0.7262555485804898         1.591768650310970    
    0.7308813801001108         1.577919511385859    
    0.7355072116197318         1.564067235201143    
    0.7401330431393527         1.550214272114554    
    0.7447588746589736         1.536363061545725    
    0.7493847061785945         1.522516030674033    
    0.7540105376982156         1.508675593157608    
    0.7586363692178365         1.494844147874637    
    0.7632622007374574         1.481024077687901    
    0.7678880322570785         1.467217748233562    
    0.7725138637766994         1.453427506735056    
    0.7771396952963203         1.439655680843029    
    0.7817655268159412         1.425904577502063    
    0.7863913583355622         1.412176481845028    
    0.7910171898551832         1.398473656115715    
    0.7956430213748041         1.384798338620506    
    0.8002688528944251         1.371152742709604    
    0.8048946844140461         1.357539055788507    
    0.8095205159336670         1.343959438360150    
    0.8141463474532880         1.330416023098288    
    0.8187721789729089         1.316910913952434    
    0.8233980104925298         1.303446185284855    
    0.8280238420121508         1.290023881039844    
    0.8326496735317718         1.276646013945629    
    0.8372755050513927         1.263314564749103    
    0.8419013365710137         1.250031481483565    
    0.8465271680906347         1.236798678769670    
    0.8511529996102556         1.223618037149553    
    0.8557788311298765         1.210491402454378    
    0.8604046626494974         1.197420585205032    
    0.8650304941691185         1.184407360046280    
    0.8696563256887394         1.171453465213916    
    0.8742821572083603         1.158560602035156    
    0.8789079887279814         1.145730434461782    
    0.8835338202476023         1.132964588636101    
    0.8881596517672232         1.120264652489324    
    0.8927854832868442         1.107632175372105    
    0.8974113148064651         1.095068667717074    
    0.9020371463260861         1.082575600732724    
    0.9066629778457070         1.070154406128685    
    0.9112888093653280         1.057806475871532    
    0.9159146408849490         1.045533161971100    
    0.9205404724045699         1.033335776296551    
    0.9251663039241909         1.021215590421829    
    0.9297921354438118         1.009173835500051    
    0.9344179669634327        0.9972117021660371    
    0.9390437984830537        0.9853303404668330    
    0.9436696300026747        0.9735308598192122    
    0.9482954615222956        0.9618143289938760    
    0.9529212930419166        0.9501817761256003    
    0.9575471245615376        0.9386341887486529    
    0.9621729560811585        0.9271725138570207    
    0.9667987876007794        0.9157976579885361    
    0.9714246191204003        0.9045104873324683    
    0.9760504506400214        0.8933118278597572    
    0.9806762821596423        0.8822024654752272    
    0.9853021136792632        0.8711831461911537    
    0.9899279451988843        0.8602545763213639    
    0.9945537767185052        0.8494174226952901    
    0.9991796082381261        0.8386723128911954    
     1.003805439757747        0.8280198354878747    
     1.008431271277368        0.8174605403341307    
     1.013057102796989        0.8069949388353216    
     1.017682934316610        0.7966235042562551    
     1.022308765836231        0.7863466720397332    
     1.026934597355852        0.7761648401400829    
     1.031560428875473        0.7660783693708996    
     1.036186260395094        0.7560875837664138    
     1.040812091914715        0.7461927709557562    
     1.045437923434336        0.7363941825493489    
     1.050063754953957        0.7266920345370106    
     1.054689586473577        0.7170865076968306    
     1.059315417993199        0.7075777480143324    
     1.063941249512820        0.6981658671114148    
     1.068567081032440        0.6888509426840597    
     1.073192912552061        0.6796330189486360    
     1.077818744071682        0.6705121070960239    
     1.082444575591303        0.6614881857527755    
     1.087070407110924        0.6525612014491693    
     1.091696238630545        0.6437310690932850    
     1.096322070150166        0.6349976724505660    
     1.100947901669787        0.6263608646287059    
     1.105573733189408        0.6178204685668469    
     1.110199564709029        0.6093762775288447    
     1.114825396228650        0.6010280556004396    
     1.119451227748271        0.5927755381891704    
     1.124077059267892        0.5846184325271516    
     1.128702890787513        0.5765564181763713    
     1.133328722307134        0.5685891475354263    
     1.137954553826755        0.5607162463480065    
     1.142580385346376        0.5529373142126360    
     1.147206216865997        0.5452519250927909    
     1.151832048385618        0.5376596278276938    
     1.156457879905239        0.5301599466433432    
     1.161083711424860        0.5227523816629546    
     1.165709542944481        0.5154364094172030    
     1.170335374464101        0.5082114833537766    
     1.174961205983722        0.5010770343455918    
     1.179587037503343        0.4940324711979915    
     1.184212869022964        0.4870771811545775    
     1.188838700542585        0.4802105304010149    
     1.193464532062206        0.4734318645671994    
     1.198090363581827        0.4667405092274919    
     1.202716195101448        0.4601357703983938    
     1.207342026621069        0.4536169350340846    
     1.211967858140690        0.4471832715195921    
     1.216593689660311        0.4408340301609910    
     1.221219521179932        0.4345684436398028    
     1.225845352699553        0.4283857274153269    
     1.230471184219174        0.4222850804314542    
     1.235097015738795        0.4162656857801314    
     1.239722847258416        0.4103267114816272    
     1.244348678778037        0.4044673099836388    
     1.248974510297658        0.3986866177163854    
     1.253600341817279        0.3929837551697540    
     1.258226173336900        0.3873578291230781    
     1.262852004856521        0.3818079365096707    
     1.267477836376141        0.3763331684896870    
     1.272103667895762        0.3709326147282652    
     1.276729499415383        0.3656053674670303    
     1.281355330935004        0.3603505251035474    
     1.285981162454625        0.3551671948301451    
     1.290606993974246        0.3500544925429637    
     1.295232825493867        0.3450115422834480    
     1.299858657013488        0.3400374751248886    
     1.304484488533109        0.3351314291975449    
     1.309110320052730        0.3302925500012893    
     1.313736151572351        0.3255199906482376    
     1.318361983091972        0.3208129120044956    
     1.322987814611593        0.3161704826355088    
     1.327613646131214        0.3115918788342901    
     1.332239477650835        0.3070762846482718    
     1.336865309170456        0.3026228919062798    
     1.341491140690077        0.2982309002361050    
     1.346116972209698        0.2938995170849610    
     1.350742803729319        0.2896279577279842    
     1.355368635248940        0.2854154452721412    
     1.359994466768561        0.2812612106585674    
     1.364620298288181        0.2771644926675817    
     1.369246129807802        0.2731245379081956    
     1.373871961327424        0.2691406008194318    
     1.378497792847044        0.2652119436390513    
     1.383123624366665        0.2613378363972537    
     1.387749455886286        0.2575175569035406    
     1.392375287405907        0.2537503907178613    
     1.397001118925528        0.2500356311437583    
     1.401626950445149        0.2463725791844017    
     1.406252781964770        0.2427605435191744    
     1.410878613484391        0.2391988404727980    
     1.415504445004012        0.2356867939820024    
     1.420130276523633        0.2322237355603805    
     1.424756108043254        0.2288090042606773    
     1.429381939562875        0.2254419466354694    
     1.434007771082496        0.2221219166960449    
     1.438633602602117        0.2188482758696759    
     1.443259434121738        0.2156203929553161    
     1.447885265641359        0.2124376440775952    
     1.452511097160980        0.2092994126398372    
     1.457136928680601        0.2062050892755246    
     1.461762760200222        0.2031540717985115    
     1.466388591719842        0.2001457651520952    
     1.471014423239464        0.1971795813572369    
     1.475640254759084        0.1942549394596538    
     1.480266086278705        0.1913712654758357    
     1.484891917798326        0.1885279923384441    
     1.489517749317947        0.1857245598408933    
     1.494143580837568        0.1829604145811980    
     1.498769412357189        0.1802350099049329    
     1.503395243876810        0.1775478058479341    
     1.508021075396431        0.1748982690782860    
     1.512646906916052        0.1722858728378584    
     1.517272738435673        0.1697100968831864    
     1.521898569955294        0.1671704274262881    
     1.526524401474915        0.1646663570749429    
     1.531150232994536        0.1621973847727126    
     1.535776064514157        0.1597630157385466    
     1.540401896033778        0.1573627614064232    
     1.545027727553399        0.1549961393646471    
     1.549653559073020        0.1526626732950448    
     1.554279390592641        0.1503618929119384    
     1.558905222112262        0.1480933339012271    
     1.563531053631882        0.1458565378593084    
     1.568156885151504        0.1436510522320159    
     1.572782716671124        0.1414764302535123    
     1.577408548190745        0.1393322308853112    
     1.582034379710366        0.1372180187553080    
     1.586660211229987        0.1351333640968907    
     1.591286042749608        0.1330778426880922    
     1.595911874269229        0.1310510357912231    
     1.600537705788850        0.1290525300925816    
     1.605163537308471        0.1270819176445493    
     1.609789368828092        0.1251387957974754    
     1.614415200347713        0.1232227671474224    
     1.619041031867334        0.1213334394751349    
     1.623666863386955        0.1194704256898494    
     1.628292694906576        0.1176333437611347    
     1.632918526426197        0.1158218166664362    
     1.637544357945818        0.1140354723316397    
     1.642170189465439        0.1122739435629673    
     1.646796020985060        0.1105368680121073    
     1.651421852504681        0.1088238881133617    
     1.656047684024302        0.1071346510096275    
     1.660673515543923        0.1054688084969558    
     1.665299347063544        0.1038260169705630    
     1.669925178583165        0.1022059374006303    
     1.674551010102785        0.1006082352379005    
     1.679176841622406        0.9903258037803599E-01
     1.683802673142027        0.9747864715092078E-01
     1.688428504661648        0.9594611410529916E-01
     1.693054336181269        0.9443466410913733E-01
     1.697680167700890        0.9294398425517472E-01
     1.702305999220511        0.9147376578002432E-01
     1.706931830740132        0.9002370407053316E-01
     1.711557662259753        0.8859349857804703E-01
     1.716183493779374        0.8718285275197218E-01
     1.720809325298995        0.8579147399976331E-01
     1.725435156818616        0.8441907363740940E-01
     1.730060988338237        0.8306536683831327E-01
     1.734686819857858        0.8173007258428584E-01
     1.739312651377479        0.8041291361505813E-01
     1.743938482897100        0.7911361637878130E-01
     1.748564314416721        0.7783191098386853E-01
     1.753190145936342        0.7656753115015157E-01
     1.757815977455963        0.7532021416113910E-01
     1.762441808975584        0.7408970081667321E-01
     1.767067640495205        0.7287573538601179E-01
     1.771693472014825        0.7167806556137564E-01
     1.776319303534446        0.7049644241190518E-01
     1.780945135054067        0.6933062033810096E-01
     1.785570966573688        0.6818035702671643E-01
     1.790196798093309        0.6704541340610080E-01
     1.794822629612930        0.6592555360199834E-01
     1.799448461132551        0.6482054489379933E-01
     1.804074292652172        0.6373015767123918E-01
     1.808700124171793        0.6265416539155022E-01
     1.813325955691414        0.6159234453705091E-01
     1.817951787211035        0.6054447457319449E-01
     1.822577618730656        0.5951033790705281E-01
     1.827203450250277        0.5848971984624368E-01
     1.831829281769898        0.5748240855829369E-01
     1.836455113289519        0.5648819503043503E-01
     1.841080944809140        0.5550687302985104E-01
     1.845706776328761        0.5453823906434090E-01
     1.850332607848382        0.5358209234342021E-01
     1.854958439368003        0.5263823473983418E-01
     1.859584270887624        0.5170647075151055E-01
     1.864210102407245        0.5078660746392885E-01
     1.868835933926865        0.4987845451290388E-01
     1.873461765446486        0.4898182404778938E-01
     1.878087596966107        0.4809653069507511E-01
     1.882713428485728        0.4722239152242041E-01
     1.887339260005349        0.4635922600308064E-01
     1.891965091524970        0.4550685598073333E-01
     1.896590923044591        0.4466510563477572E-01
     1.901216754564212        0.4383380144569172E-01
     1.905842586083833        0.4301277216132147E-01
     1.910468417603454        0.4220184876319784E-01
     1.915094249123075        0.4140086443334005E-01
     1.919720080642696        0.4060965452154201E-01
     1.924345912162317        0.3982805651263316E-01
     1.928971743681938        0.3905590999461200E-01
     1.933597575201559        0.3829305662674103E-01
     1.938223406721180        0.3753934010798569E-01
     1.942849238240801        0.3679460614482086E-01
     1.947475069760422        0.3605870242585157E-01
     1.952100901280043        0.3533147858601556E-01
     1.956726732799664        0.3461278617878940E-01
     1.961352564319285        0.3390247864717325E-01
     1.965978395838906        0.3320041129742370E-01
     1.970604227358526        0.3250644125696949E-01
     1.975230058878148        0.3182042745992902E-01
     1.979855890397769        0.3114223061421340E-01
     1.984481721917389        0.3047171317316409E-01
     1.989107553437010        0.2980873930315873E-01
     1.993733384956631        0.2915317487348535E-01
     1.998359216476252        0.2850488741407985E-01
     2.002985047995873        0.2786374609138000E-01
     2.007610879515494        0.2722962168263727E-01
     2.012236711035115        0.2660238655030076E-01
     2.016862542554736        0.2598191461687560E-01
     2.021488374074357        0.2536808133947467E-01
     2.026114205593978        0.2476076368468620E-01
     2.030740037113599        0.2415984010381759E-01
     2.035365868633220        0.2356519050839561E-01
     2.039991700152841        0.2297669624590823E-01
     2.044617531672462        0.2239424007589583E-01
     2.049243363192083        0.2181770614635244E-01
     2.053869194711704        0.2124697997036492E-01
     2.058495026231325        0.2068194840302109E-01
     2.063120857750945        0.2012249961858772E-01
     2.067746689270566        0.1956852308795861E-01
     2.072372520790188        0.1901990955636263E-01
     2.076998352309809        0.1847655102133404E-01
     2.081624183829430        0.1793834071093825E-01
     2.086250015349050        0.1740517306224415E-01
     2.090875846868671        0.1687694370012047E-01
     2.095501678388292        0.1635354942771007E-01
     2.100127509907913        0.1583488850594379E-01
     2.104753341427534        0.1532086283580469E-01
     2.109379172947155        0.1481138480188589E-01
     2.114005004466776        0.1430638913416347E-01
     2.118630835986397        0.1380584656382594E-01
     2.123256667506018        0.1330977534203788E-01
     2.127882499025639        0.1281824831684795E-01
     2.132508330545260        0.1233139513010017E-01
     2.137134162064881        0.1184940024423098E-01
     2.141759993584502        0.1137249793873645E-01
     2.146385825104123        0.1090096541019097E-01
     2.151011656623744        0.1043511491330634E-01
     2.155637488143365        0.9975285638304859E-02
     2.160263319662985        0.9521835799304807E-02
     2.164889151182606        0.9075135232257173E-02
     2.169514982702228        0.8635558670695260E-02
     2.174140814221849        0.8203479776409266E-02
     2.178766645741470        0.7779265941293375E-02
     2.183392477261091        0.7363273837938426E-02
     2.188018308780711        0.6955845673510788E-02
     2.192644140300332        0.6557306089060739E-02
     2.197269971819953        0.6167959641018741E-02
     2.201895803339574        0.5788088800751505E-02
     2.206521634859195        0.5417952409813859E-02
     2.211147466378816        0.5057784531800694E-02
     2.215773297898437        0.4707793645606166E-02
     2.220399129418058        0.4368162128881290E-02
     2.225024960937679        0.4039045984112503E-02
     2.229650792457300        0.3720574762716069E-02
     2.234276623976921        0.3412851644461509E-02
     2.238902455496542        0.3115953630034140E-02
     2.243528287016163        0.2829931802966255E-02
     2.248154118535784        0.2554811612529099E-02
     2.252779950055405        0.2290593119781489E-02
     2.257405781575025        0.2037251131796388E-02
     2.262031613094647        0.1794735118533409E-02
     2.266657444614268        0.1562968752099407E-02
     2.271283276133889        0.1341848807203426E-02
     2.275909107653510        0.1131242966731191E-02
     2.280534939173131        0.9309856758930615E-03
     2.285160770692751        0.7408702953241137E-03
     2.289786602212372        0.5606335846139187E-03
     2.294412433731993        0.3899221519663924E-03
     2.299038265251614        0.2282071931798264E-03
     2.303664096771235        0.7448902108523977E-04
     2.308289928290856         0.000000000000000    
  0  4  1  0  2.000000   #orbital l, n, z, is_polarized, population
 500    0.1320324103941579E-01     6.588417278668478     # npts, delta, cutoff
     0.000000000000000         1.250969133574194    
    0.1320324103941579E-01     1.250528802268195    
    0.2640648207883158E-01     1.249320122109492    