<preamble>

<basis_specs>
===============================================================================
O                    Z=   8    Mass=  15.999        Charge= 0.17977+309
Lmxo=2 Lmxkb= 2    BasisType=split      Semic=F
L=0  Nsemic=0  Cnfigmx=2
          i=1  nzeta=2  polorb=0  (2s)
            splnorm:   0.15000    
               vcte:    40.000    
               rinn:    3.3730    
               qcoe:    0.0000    
               qyuk:    0.0000    
               qwid:   0.10000E-01
                rcs:    3.7440      2.3433    
            lambdas:    1.0000      1.0000    
L=1  Nsemic=0  Cnfigmx=2
          i=1  nzeta=2  polorb=1  (2p)  (to be polarized perturbatively)
            splnorm:   0.15000    
               vcte:    40.000    
               rinn:    4.1717    
               qcoe:    0.0000    
               qyuk:    0.0000    
               qwid:   0.10000E-01
                rcs:    4.6305      2.8817    
            lambdas:    1.0000      1.0000    
L=2  Nsemic=0  Cnfigmx=3
          i=1  nzeta=0  polorb=0  (3d)  (perturbative polarization orbital) (from 2p)
-------------------------------------------------------------------------------
L=0  Nkbl=1  erefs: 0.17977+309
L=1  Nkbl=1  erefs: 0.17977+309
L=2  Nkbl=1  erefs: 0.17977+309
===============================================================================
</basis_specs>

<pseudopotential_header>
 O  pb nrl pcec
 ONCVPSP-3.2017-10-31Hamann's oncvpsp                        
 2s 2.00  r= 1.36/2p 4.00  r= 1.46/3d 0.00  r= 1.26/                    2s:2p:
</pseudopotential_header>
</preamble>
O                             # Symbol
O                             # Label
    8                         # Atomic number
     6.00000000000                             # Valence charge
     15.9990000000        # Mass 
     48.1918825321        # Self energy 
   2   5                      # Lmax for basis, no. of nl orbitals 
   2   5                      # Lmax for projectors, no. of nl KB projectors
# PAOs:__________________________
  0  2  1  0  2.000000   #orbital l, n, z, is_polarized, population
 500    0.7503065262621818E-02     3.744029566048287     # npts, delta, cutoff
     0.000000000000000         1.368379253120350    
    0.7503065262621818E-02     1.368387711350671    
    0.1500613052524364E-01     1.368453979313467    
    0.2250919578786546E-01     1.368564187168444    
    0.3001226105048727E-01     1.368717954337920    
    0.3751532631310909E-01     1.368914754170369    
    0.4501839157573091E-01     1.369153911587123    
    0.5252145683835273E-01     1.369434603531578    
    0.6002452210097454E-01     1.369755859941782    
    0.6752758736359636E-01     1.370116564993872    
    0.7503065262621818E-01     1.370515458566516    
    0.8253371788883999E-01     1.370951137913479    
    0.9003678315146182E-01     1.371422059540613    
    0.9753984841408364E-01     1.371926541286409    
    0.1050429136767055         1.372462764606244    
    0.1125459789393273         1.373028777060733    
    0.1200490442019491         1.373622495008646    
    0.1275521094645709         1.374241706504812    
    0.1350551747271927         1.374884074403183    
    0.1425582399898145         1.375547139665031    
    0.1500613052524364         1.376228324871943    
    0.1575643705150582         1.376924937942935    
    0.1650674357776800         1.377634176054598    
    0.1725705010403018         1.378353129762709    
    0.1800735663029236         1.379078787323375    
    0.1875766315655455         1.379808039211045    
    0.1950796968281673         1.380537682830362    
    0.2025827620907891         1.381264427418103    
    0.2100858273534109         1.381984899130814    
    0.2175888926160327         1.382695646313164    
    0.2250919578786545         1.383393144941258    
    0.2325950231412764         1.384073804234479    
    0.2400980884038982         1.384733972428760    
    0.2476011536665200         1.385369942703288    
    0.2551042189291418         1.385977959252136    
    0.2626072841917637         1.386554223491306    
    0.2701103494543854         1.387094900391177    
    0.2776134147170073         1.387596124923477    
    0.2851164799796291         1.388054008611190    
    0.2926195452422509         1.388464646169269    
    0.3001226105048727         1.388824122223106    
    0.3076256757674946         1.389128518091384    
    0.3151287410301163         1.389373918619114    
    0.3226318062927382         1.389556419046243    
    0.3301348715553600         1.389672131896653    
    0.3376379368179818         1.389717193871996    
    0.3451410020806036         1.389687772734411    
    0.3526440673432255         1.389580074161745    
    0.3601471326058473         1.389390348558861    
    0.3676501978684691         1.389114897808192    
    0.3751532631310909         1.388750081942729    
    0.3826563283937127         1.388292325724595    
    0.3901593936563346         1.387738125112273    
    0.3976624589189564         1.387084053599842    
    0.4051655241815782         1.386326768411577    
    0.4126685894442000         1.385463016535710    
    0.4201716547068218         1.384489640581374    
    0.4276747199694436         1.383403584443222    
    0.4351777852320655         1.382201898758761    
    0.4426808504946873         1.380881746143887    
    0.4501839157573091         1.379440406192920    
    0.4576869810199309         1.377875280230052    
    0.4651900462825527         1.376183895799773    
    0.4726931115451745         1.374363910885186    
    0.4801961768077964         1.372413117843166    
    0.4876992420704182         1.370329447047312    
    0.4952023073330400         1.368110970229609    
    0.5027053725956618         1.365755903513677    
    0.5102084378582836         1.363262610132773    
    0.5177115031209054         1.360629602827518    
    0.5252145683835273         1.357855545918920    
    0.5327176336461491         1.354939257053640    
    0.5402206989087709         1.351879708619762    
    0.5477237641713927         1.348676028832132    
    0.5552268294340146         1.345327502487827    
    0.5627298946966364         1.341833571393371    
    0.5702329599592582         1.338193834466321    
    0.5777360252218799         1.334408047515222    
    0.5852390904845018         1.330476122702818    
    0.5927421557471236         1.326398127698624    
    0.6002452210097454         1.322174284527823    
    0.6077482862723673         1.317804968124585    
    0.6152513515349891         1.313290704598780    
    0.6227544167976109         1.308632169225897    
    0.6302574820602327         1.303830184170846    
    0.6377605473228546         1.298885715957035    
    0.6452636125854764         1.293799872692837    
    0.6527666778480982         1.288573901068118    
    0.6602697431107200         1.283209183134140    
    0.6677728083733419         1.277707232880440    
    0.6752758736359636         1.272069692622915    
    0.6827789388985854         1.266298329217436    
    0.6902820041612072         1.260395030113675    
    0.6977850694238291         1.254361799263908    
    0.7052881346864509         1.248200752901703    
    0.7127911999490727         1.241914115205370    
    0.7202942652116946         1.235504213861017    
    0.7277973304743164         1.228973477039858    
    0.7353003957369382         1.222324424926622    
    0.7428034609995600         1.215559667654624    
    0.7503065262621819         1.208681901069572    
    0.7578095915248036         1.201693901336282    
    0.7653126567874254         1.194598520196411    
    0.7728157220500472         1.187398680221396    
    0.7803187873126691         1.180097370072372    
    0.7878218525752909         1.172697639778236    
    0.7953249178379127         1.165202596042509    
    0.8028279831005345         1.157615397588770    
    0.8103310483631564         1.149939250553852    
    0.8178341136257782         1.142177403937237    
    0.8253371788884000         1.134333145114350    
    0.8328402441510218         1.126409795420748    
    0.8403433094136437         1.118410705813316    
    0.8478463746762654         1.110339252613949    
    0.8553494399388872         1.102198833340404    
    0.8628525052015091         1.093992862628395    
    0.8703555704641309         1.085724768248041    
    0.8778586357267527         1.077397987217304    
    0.8853617009893745         1.069015962014330    
    0.8928647662519964         1.060582136890015    
    0.9003678315146182         1.052099954281374    
    0.9078708967772400         1.043572851325844    
    0.9153739620398618         1.035004256476262    
    0.9228770273024837         1.026397586215508    
    0.9303800925651055         1.017756241869550    
    0.9378831578277272         1.009083606517299    
    0.9453862230903490         1.000383041995195    
    0.9528892883529709        0.9916578859942933    
    0.9603923536155927        0.9829114492473766    
    0.9678954188782145        0.9741470128033528    
    0.9753984841408364        0.9653678253862591    
    0.9829015494034582        0.9565771008359143    
    0.9904046146660800        0.9477780156272965    
    0.9979076799287018        0.9389737064660278    
     1.005410745191324        0.9301672679568220    
     1.012913810453945        0.9213617503423647    
     1.020416875716567        0.9125601573103340    
     1.027919940979189        0.9037654438656351    
     1.035423006241811        0.8949805142663434    
     1.042926071504433        0.8862082200211210    
     1.050429136767055        0.8774513579463425    
     1.057932202029676        0.8687126682824188    
     1.065435267292298        0.8599948328671151    
     1.072938332554920        0.8513004733662876    
     1.080441397817542        0.8426321495612836    
     1.087944463080164        0.8339923576927133    
     1.095447528342785        0.8253835288619517    
     1.102950593605407        0.8168080274897092    
     1.110453658868029        0.8082681498341332    
     1.117956724130651        0.7997661225687637    
     1.125459789393273        0.7913041014225988    
     1.132962854655895        0.7828841698843336    
     1.140465919918516        0.7745083379724127    
     1.147968985181138        0.7661785410743861    
     1.155472050443760        0.7578966388571918    
     1.162975115706382        0.7496644142524093    
     1.170478180969004        0.7414835725186608    
     1.177981246231625        0.7333557403850199    
     1.185484311494247        0.7252824652781786    
     1.192987376756869        0.7172652146371707    
     1.200490442019491        0.7093053753188177    
     1.207993507282113        0.7014042530972324    
     1.215496572544735        0.6935630722605096    
     1.222999637807356        0.6857829753080960    
     1.230502703069978        0.6780650227515036    
     1.238005768332600        0.6704101930215396    
     1.245508833595222        0.6628193824841477    
     1.253011898857844        0.6552934055679728    
     1.260514964120465        0.6478329950048726    
     1.268018029383087        0.6404388021860464    
     1.275521094645709        0.6331113976342185    
     1.283024159908331        0.6258512715939866    
     1.290527225170953        0.6186588347399004    
     1.298030290433575        0.6115344190037781    
     1.305533355696196        0.6044782785200055    
     1.313036420958818        0.5974905906629666    
     1.320539486221440        0.5905714571135207    
     1.328042551484062        0.5837209056041204    
     1.335545616746684        0.5769388919282470    
     1.343048682009305        0.5702252992891678    
     1.350551747271927        0.5635799378844186    
     1.358054812534549        0.5570025523549029    
     1.365557877797171        0.5504928363605057    
     1.373060943059793        0.5440504489045964    
     1.380564008322414        0.5376750297962450    
     1.388067073585036        0.5313662090122886    
     1.395570138847658        0.5251236063303559    
     1.403073204110280        0.5189468288627058    
     1.410576269372902        0.5128354719380720    
     1.418079334635524        0.5067891205346704    
     1.425582399898145        0.5008073500833794    
     1.433085465160767        0.4948897270281484    
     1.440588530423389        0.4890358094425180    
     1.448091595686011        0.4832451476575079    
     1.455594660948633        0.4775172848900654    
     1.463097726211255        0.4718517576984253    
     1.470600791473876        0.4662480966648588    
     1.478103856736498        0.4607058269012982    
     1.485606921999120        0.4552244683451157    
     1.493109987261742        0.4498035363199914    
     1.500613052524364        0.4444425420636799    
     1.508116117786986        0.4391409931778531    
     1.515619183049607        0.4338983939219129    
     1.523122248312229        0.4287142456529296    
     1.530625313574851        0.4235880472009823    
     1.538128378837473        0.4185192952198012    
     1.545631444100094        0.4135074845241308    
     1.553134509362716        0.4085521084117451    
     1.560637574625338        0.4036526589708428    
     1.568140639887960        0.3988086273725227    
     1.575643705150582        0.3940195041491123    
     1.583146770413204        0.3892847794591633    
     1.590649835675825        0.3846039433395733    
     1.598152900938447        0.3799764859451800    
     1.605655966201069        0.3754018977767037    
     1.613159031463691        0.3708796698970894    
     1.620662096726313        0.3664092941370240    
     1.628165161988935        0.3619902632900241    
     1.635668227251556        0.3576220712972933    
     1.643171292514178        0.3533042134231494    
     1.650674357776800        0.3490361864209912    
     1.658177423039422        0.3448174886905786    
     1.665680488302044        0.3406476204276089    
     1.673183553564666        0.3365260837626012    
     1.680686618827287        0.3324523828940545    
     1.688189684089909        0.3284260242121101    
     1.695692749352531        0.3244465164246046    
     1.703195814615153        0.3205133706619372    
     1.710698879877774        0.3166261005803485    
     1.718201945140396        0.3127842224590535    
     1.725705010403018        0.3089872552996041    
     1.733208075665640        0.3052347209079243    
     1.740711140928262        0.3015261439750586    
     1.748214206190884        0.2978610521415581    
     1.755717271453505        0.2942389761149704    
     1.763220336716127        0.2906594496774086    
     1.770723401978749        0.2871220097681263    
     1.778226467241371        0.2836261965460399    
     1.785729532503993        0.2801715534410915    
     1.793232597766615        0.2767576272006823    
     1.800735663029236        0.2733839679329560    
     1.808238728291858        0.2700501291481611    
     1.815741793554480        0.2667556677962314    
     1.823244858817102        0.2635001443007678    
     1.830747924079724        0.2602831225895572    
     1.838250989342346        0.2571041701220826    
     1.845754054604967        0.2539628579140960    
     1.853257119867589        0.2508587605593813    
     1.860760185130211        0.2477914562488110    
     1.868263250392833        0.2447605267868473    
     1.875766315655454        0.2417655576055885    
     1.883269380918076        0.2388061377764790    
     1.890772446180698        0.2358818600197980    
     1.898275511443320        0.2329923207120293    
     1.905778576705942        0.2301371198912034    
     1.913281641968564        0.2273158612603270    
     1.920784707231185        0.2245281521889768    
     1.928287772493807        0.2217736037131547    
     1.935790837756429        0.2190518305334848    
     1.943293903019051        0.2163624510118428    
     1.950796968281673        0.2137050871664833    
     1.958300033544295        0.2110793646657546    
     1.965803098806916        0.2084849128204603    
     1.973306164069538        0.2059213645749473    
     1.980809229332160        0.2033883564969816    
     1.988312294594782        0.2008855287664739    
     1.995815359857404        0.1984125251631241    
     2.003318425120026        0.1959689930530309    
     2.010821490382647        0.1935545833743365    
     2.018324555645269        0.1911689506219473    
     2.025827620907891        0.1888117528313918    
     2.033330686170513        0.1864826515618612    
     2.040833751433135        0.1841813118784762    
     2.048336816695756        0.1819074023338358    
     2.055839881958378        0.1796605949488790    
     2.063342947221000        0.1774405651931096    
     2.070846012483622        0.1752469919642205    
     2.078349077746243        0.1730795575671578    
     2.085852143008865        0.1709379476926557    
     2.093355208271487        0.1688218513952863    
     2.100858273534109        0.1667309610710472    
     2.108361338796731        0.1646649724345272    
     2.115864404059353        0.1626235844956768    
     2.123367469321975        0.1606064995362125    
     2.130870534584596        0.1586134230856839    
     2.138373599847218        0.1566440638972317    
     2.145876665109840        0.1546981339230585    
     2.153379730372462        0.1527753482896393    
     2.160882795635084        0.1508754252726966    
     2.168385860897705        0.1489980862719575    
     2.175888926160327        0.1471430557857173    
     2.183391991422949        0.1453100613852329    
     2.190895056685571        0.1434988336889598    
     2.198398121948193        0.1417091063366503    
     2.205901187210815        0.1399406159633403    
     2.213404252473437        0.1381931021732319    
     2.220907317736058        0.1364663075134889    
     2.228410382998680        0.1347599774479655    
     2.235913448261302        0.1330738603308804    
     2.243416513523924        0.1314077073804508    
     2.250919578786545        0.1297612726524910    
     2.258422644049167        0.1281343130140065    
     2.265925709311789        0.1265265881167802    
     2.273428774574411        0.1249378603709659    
     2.280931839837033        0.1233678949187004    
     2.288434905099654        0.1218164596077501    
     2.295937970362276        0.1202833249651952    
     2.303441035624898        0.1187682641711576    
     2.310944100887520        0.1172710530325934    
     2.318447166150142        0.1157914699571491    
     2.325950231412764        0.1143292959270938    
     2.333453296675386        0.1128843144733258    
     2.340956361938007        0.1114563116494780    
     2.348459427200629        0.1100450760061162    
     2.355962492463251        0.1086503985650358    
     2.363465557725873        0.1072720727936679    
     2.370968622988495        0.1059098945796053    
     2.378471688251116        0.1045636622052439    
     2.385974753513738        0.1032331763225442    
     2.393477818776360        0.1019182399279290    
     2.400980884038982        0.1006186583373156    
     2.408483949301603        0.9933423916128470E-01
     2.415987014564225        0.9806479228038395E-01
     2.423490079826847        0.9681012982059023E-01
     2.430993145089469        0.9557006612891691E-01
     2.438496210352091        0.9434441774917453E-01
     2.445999275614713        0.9313300339787686E-01
     2.453502340877335        0.9193564394032494E-01
     2.461005406139956        0.9075216236684282E-01
     2.468508471402578        0.8958238376917817E-01
     2.476011536665200        0.8842613531706092E-01
     2.483514601927822        0.8728324623494854E-01
     2.491017667190444        0.8615354777893051E-01
     2.498520732453065        0.8503687321380819E-01
     2.506023797715687        0.8393305779033756E-01
     2.513526862978309        0.8284193872266839E-01
     2.521029928240931        0.8176335516594788E-01
     2.528532993503553        0.8069714819410399E-01
     2.536036058766174        0.7964316077779890E-01
     2.543539124028797        0.7860123776258260E-01
     2.551042189291418        0.7757122584721478E-01
     2.558545254554040        0.7655297356217157E-01
     2.566048319816662        0.7554633124832197E-01
     2.573551385079284        0.7455115103581172E-01
     2.581054450341906        0.7356728682311488E-01
     2.588557515604527        0.7259459425627403E-01
     2.596060580867149        0.7163293070830846E-01
     2.603563646129771        0.7068215525883577E-01
     2.611066711392393        0.6974212867385771E-01
     2.618569776655014        0.6881271338574016E-01
     2.626072841917636        0.6789377347335551E-01
     2.633575907180258        0.6698517464244076E-01
     2.641078972442880        0.6608678420612042E-01
     2.648582037705502        0.6519847106562066E-01
     2.656085102968124        0.6432010569114864E-01
     2.663588168230746        0.6345156010297860E-01
     2.671091233493367        0.6259270785271057E-01
     2.678594298755989        0.6174342400471233E-01
     2.686097364018611        0.6090358511773301E-01
     2.693600429281233        0.6007306922670533E-01
     2.701103494543855        0.5925175582473407E-01
     2.708606559806476        0.5843952584525704E-01
     2.716109625069098        0.5763626164438251E-01
     2.723612690331720        0.5684184698339655E-01
     2.731115755594342        0.5605616701147173E-01
     2.738618820856964        0.5527910824853241E-01
     2.746121886119585        0.5451055856830495E-01
     2.753624951382207        0.5375040718152136E-01
     2.761128016644829        0.5299854461932622E-01
     2.768631081907451        0.5225486271683959E-01
     2.776134147170073        0.5151925459689773E-01
     2.783637212432695        0.5079161465394826E-01
     2.791140277695316        0.5007183853812987E-01
     2.798643342957938        0.4935982313952209E-01
     2.806146408220560        0.4865546657255436E-01
     2.813649473483182        0.4795866816058602E-01
     2.821152538745804        0.4726932842063193E-01
     2.828655604008425        0.4658734904828478E-01
     2.836158669271047        0.4591263290277830E-01
     2.843661734533669        0.4524508399222033E-01
     2.851164799796291        0.4458460745896909E-01
     2.858667865058913        0.4393110956518773E-01
     2.866170930321534        0.4328449767855305E-01
     2.873673995584156        0.4264468025811534E-01
     2.881177060846778        0.4201156684032007E-01
     2.888680126109400        0.4138506802515896E-01
     2.896183191372022        0.4076509546251270E-01
     2.903686256634644        0.4015156183862035E-01
     2.911189321897266        0.3954438086270599E-01
     2.918692387159887        0.3894346725374460E-01
     2.926195452422509        0.3834873672738216E-01
     2.933698517685131        0.3776010598300971E-01
     2.941201582947753        0.3717749269097194E-01
     2.948704648210374        0.3660081547992758E-01
     2.956207713472996        0.3602999392432867E-01
     2.963710778735618        0.3546494853207340E-01
     2.971213843998240        0.3490560073228205E-01
     2.978716909260862        0.3435187286321180E-01
     2.986219974523483        0.3380368816031282E-01
     2.993723039786105        0.3326097074440043E-01
     3.001226105048727        0.3272364560999527E-01
     3.008729170311349        0.3219163861377374E-01
     3.016232235573971        0.3166487646315691E-01
     3.023735300836593        0.3114328670502558E-01
     3.031238366099215        0.3062679771455959E-01
     3.038741431361836        0.3011533868422435E-01
     3.046244496624458        0.2960883961286799E-01
     3.053747561887080        0.2910723129494980E-01
     3.061250627149702        0.2861044530988216E-01
     3.068753692412324        0.2811841401150494E-01
     3.076256757674945        0.2763107051768447E-01
     3.083759822937567        0.2714834870002499E-01
     3.091262888200189        0.2667018317370513E-01
     3.098765953462811        0.2619650928741541E-01
     3.106269018725432        0.2572726311343186E-01
     3.113772083988055        0.2526238143779870E-01
     3.121275149250677        0.2480180175062139E-01
     3.128778214513298        0.2434546223647754E-01
     3.136281279775920        0.2389330176492184E-01
     3.143784345038542        0.2344525988112400E-01
     3.151287410301164        0.2300127679660501E-01
     3.158790475563785        0.2256129338008023E-01
     3.166293540826407        0.2212525114841379E-01
     3.173796606089029        0.2169309225766100E-01
     3.181299671351651        0.2126475949423712E-01
     3.188802736614273        0.2084019626617891E-01
     3.196305801876894        0.2041934659450662E-01
     3.203808867139516        0.2000215510469069E-01
     3.211311932402138        0.1958856701820427E-01
     3.218814997664760        0.1917852814418949E-01
     3.226318062927382        0.1877198487121668E-01
     3.233821128190004        0.1836888415913492E-01
     3.241324193452626        0.1796917353102208E-01
     3.248827258715247        0.1757280106521835E-01
     3.256330323977869        0.1717971538746048E-01
     3.263833389240491        0.1678986566311017E-01
     3.271336454503113        0.1640320158946472E-01
     3.278839519765735        0.1601967338816178E-01
     3.286342585028356        0.1563923179766680E-01
     3.293845650290978        0.1526182806584598E-01
     3.301348715553600        0.1488741394263653E-01
     3.308851780816222        0.1451594167279038E-01
     3.316354846078843        0.1414736398870603E-01
     3.323857911341465        0.1378163410334193E-01
     3.331360976604087        0.1341870570320307E-01
     3.338864041866709        0.1305853294142494E-01
     3.346367107129331        0.1270107043092489E-01
     3.353870172391953        0.1234627323763411E-01
     3.361373237654575        0.1199409687380991E-01
     3.368876302917196        0.1164449729141407E-01
     3.376379368179818        0.1129743087558043E-01
     3.383882433442440        0.1095285443815024E-01
     3.391385498705062        0.1061072521128083E-01
     3.398888563967684        0.1027100084257668E-01
     3.406391629230305        0.9933639471630501E-02
     3.413894694492927        0.9598600732825664E-02
     3.421397759755549        0.9265850193195648E-02
     3.428900825018171        0.8935369085769094E-02
     3.436403890280793        0.8607167490997880E-02
     3.443906955543414        0.8281296925650215E-02
     3.451410020806037        0.7957859167055286E-02
     3.458913086068658        0.7637010117129317E-02
     3.466416151331280        0.7318959029445024E-02
     3.473919216593902        0.7003964147753116E-02
     3.481422281856524        0.6692325956385424E-02
     3.488925347119145        0.6384379104287731E-02
     3.496428412381767        0.6080483826001675E-02
     3.503931477644389        0.5781017443248271E-02
     3.511434542907011        0.5486366329474018E-02
     3.518937608169633        0.5196918565827165E-02
     3.526440673432254        0.4913057406335076E-02
     3.533943738694876        0.4635155594140893E-02
     3.541446803957498        0.4363570520912381E-02
     3.548949869220120        0.4098640190546197E-02
     3.556452934482742        0.3840679930415313E-02
     3.563955999745364        0.3589979784346565E-02
     3.571459065007986        0.3346802518250989E-02
     3.578962130270607        0.3111382169743263E-02
     3.586465195533229        0.2883923075691042E-02
     3.593968260795851        0.2664599315433159E-02
     3.601471326058473        0.2453554511731819E-02
     3.608974391321095        0.2250901935890164E-02
     3.616477456583716        0.2056724867537957E-02
     3.623980521846338        0.1871077163106467E-02
     3.631483587108960        0.1693983989672420E-02
     3.638986652371582        0.1525442682342991E-02
     3.646489717634203        0.1365423683150327E-02
     3.653992782896825        0.1213871516708910E-02
     3.661495848159447        0.1070705751199339E-02
     3.668998913422069        0.9358218799657810E-03
     3.676501978684691        0.8090920341030311E-03
     3.684005043947313        0.6903653899006792E-03
     3.691508109209935        0.5794680457688395E-03
     3.699011174472556        0.4762019636077985E-03
     3.706514239735178        0.3803421821634124E-03
     3.714017304997800        0.2916305936979229E-03
     3.721520370260422        0.2097621192282218E-03
     3.729023435523044        0.1343512467713569E-03
     3.736526500785665        0.6483346261187209E-04
     3.744029566048287         0.000000000000000    
  0  2  2  0  0.000000   #orbital l, n, z, is_polarized, population
 500    0.4696044877304785E-02     2.343326393775088     # npts, delta, cutoff
     0.000000000000000         1.654227665840375    
    0.4696044877304785E-02     1.654221129150720    
    0.9392089754609570E-02     1.654266823529646    
    0.1408813463191436E-01     1.654342950360127    
    0.1878417950921914E-01     1.654449405842782    
    0.2348022438652392E-01     1.654586058676064    
    0.2817626926382871E-01     1.654752742371020    
    0.3287231414113349E-01     1.654949254228611    
    0.3756835901843828E-01     1.655175355166355    
    0.4226440389574307E-01     1.655430769748410    
    0.4696044877304785E-01     1.655715186289928    
    0.5165649365035264E-01     1.656028257000534    
    0.5635253852765743E-01     1.656369598155191    
    0.6104858340496221E-01     1.656738790287978    
    0.6574462828226699E-01     1.657135378406958    
    0.7044067315957178E-01     1.657558872229189    
    0.7513671803687656E-01     1.658008746435572    
    0.7983276291418134E-01     1.658484440945314    
    0.8452880779148614E-01     1.658985361209917    
    0.8922485266879092E-01     1.659510878526681    
    0.9392089754609570E-01     1.660060330371753    
    0.9861694242340049E-01     1.660633020752710    