<preamble>

<basis_specs>
===============================================================================
Os                   Z=  76    Mass=  190.23        Charge= 0.17977+309
Lmxo=2 Lmxkb= 3    BasisType=split      Semic=T
L=0  Nsemic=1  Cnfigmx=6
          i=1  nzeta=1  polorb=0  (5s)  (semicore shell)
            splnorm:   0.15000    
               vcte:    40.000    
               rinn:    2.4616    
               qcoe:    0.0000    
               qyuk:    0.0000    
               qwid:   0.10000E-01
                rcs:    2.7324    
            lambdas:    1.0000    
          i=2  nzeta=2  polorb=0  (6s)  (to be polarized non-perturbatively)
            splnorm:   0.15000    
               vcte:    40.000    
               rinn:    6.1658    
               qcoe:    0.0000    
               qyuk:    0.0000    
               qwid:   0.10000E-01
                rcs:    6.8440      4.8782    
            lambdas:    1.0000      1.0000    
L=1  Nsemic=1  Cnfigmx=6
          i=1  nzeta=1  polorb=0  (5p)  (semicore shell)
            splnorm:   0.15000    
               vcte:    40.000    
               rinn:    2.9165    
               qcoe:    0.0000    
               qyuk:    0.0000    
               qwid:   0.10000E-01
                rcs:    3.2406    
            lambdas:    1.0000    
          i=2  nzeta=1  polorb=0  (6p)  (non-perturbative polarization shell)
            splnorm:   0.15000    
               vcte:    40.000    
               rinn:    6.1658    
               qcoe:    0.0000    
               qyuk:    0.0000    
               qwid:   0.10000E-01
                rcs:    6.8440    
            lambdas:    1.0000    
L=2  Nsemic=0  Cnfigmx=5
          i=1  nzeta=2  polorb=0  (5d)
            splnorm:   0.15000    
               vcte:    40.000    
               rinn:    4.8872    
               qcoe:    0.0000    
               qyuk:    0.0000    
               qwid:   0.10000E-01
                rcs:    5.4248      3.5717    
            lambdas:    1.0000      1.0000    
-------------------------------------------------------------------------------
L=0  Nkbl=2  erefs: 0.17977+309 0.17977+309
L=1  Nkbl=2  erefs: 0.17977+309 0.17977+309
L=2  Nkbl=1  erefs: 0.17977+309
L=3  Nkbl=1  erefs: 0.17977+309
===============================================================================
</basis_specs>

<pseudopotential_header>
 Os pb nrl pcec
 ONCVPSP-3.2017-10-31Hamann's oncvpsp                        
 5s 2.00  r= 1.51/5p 6.00  r= 1.55/5d 6.00  r= 1.55/5f 0.00  r= 2.27/   5s:5p:5d:6s:
</pseudopotential_header>
</preamble>
Os                            # Symbol
Os                            # Label
   76                         # Atomic number
     16.0000000000                             # Valence charge
     190.230000000        # Mass 
     270.947314098        # Self energy 
   2   7                      # Lmax for basis, no. of nl orbitals 
   3   8                      # Lmax for projectors, no. of nl KB projectors
# PAOs:__________________________
  0  5  1  0  2.000000   #orbital l, n, z, is_polarized, population
 500    0.5475731523589864E-02     2.732390030271342     # npts, delta, cutoff
     0.000000000000000        0.6484964234000530    
    0.5475731523589864E-02    0.6485974339123142    
    0.1095146304717973E-01    0.6489521357492923    
    0.1642719457076959E-01    0.6495430635028517    
    0.2190292609435946E-01    0.6503698149516418    
    0.2737865761794932E-01    0.6514318368691950    
    0.3285438914153919E-01    0.6527284201675032    
    0.3833012066512905E-01    0.6542586996686099    
    0.4380585218871891E-01    0.6560216545557231    
    0.4928158371230878E-01    0.6580161090646843    
    0.5475731523589864E-01    0.6602407333274614    
    0.6023304675948851E-01    0.6626940443430543    
    0.6570877828307838E-01    0.6653744070670677    
    0.7118450980666824E-01    0.6682800356160168    
    0.7666024133025810E-01    0.6714089945841052    
    0.8213597285384797E-01    0.6747592004708273    
    0.8761170437743783E-01    0.6783284232179432    
    0.9308743590102769E-01    0.6821142878544695    
    0.9856316742461756E-01    0.6861142762482877    
    0.1040388989482074        0.6903257289629315    
    0.1095146304717973        0.6947458472180512    
    0.1149903619953871        0.6993716949519856    
    0.1204660935189770        0.7042002009847897    
    0.1259418250425669        0.7092281612799863    
    0.1314175565661568        0.7144522413032466    
    0.1368932880897466        0.7198689784761064    
    0.1423690196133365        0.7254747847227675    
    0.1478447511369263        0.7312659491079322    
    0.1533204826605162        0.7372386405635770    
    0.1587962141841061        0.7433889107024646    
    0.1642719457076959        0.7497126967161399    
    0.1697476772312858        0.7562058243550727    
    0.1752234087548757        0.7628640109885620    
    0.1806991402784655        0.7696828687419025    
    0.1861748718020554        0.7766579077083114    
    0.1916506033256453        0.7837845392329847    
    0.1971263348492351        0.7910580792666358    
    0.2026020663728250        0.7984737517857802    
    0.2080777978964148        0.8060266922769846    
    0.2135535294200047        0.8137119512822409    
    0.2190292609435946        0.8215244980025616    
    0.2245049924671844        0.8294592239568442    
    0.2299807239907743        0.8375109466930087    
    0.2354564555143642        0.8456744135483559    
    0.2409321870379540        0.8539443054560515    
    0.2464079185615439        0.8623152407945908    
    0.2518836500851337        0.8707817792770755    
    0.2573593816087236        0.8793384258770667    
    0.2628351131323135        0.8879796347877833    
    0.2683108446559034        0.8966998134113373    
    0.2737865761794932        0.9054933263747006    
    0.2792623077030831        0.9143544995690628    
    0.2847380392266730        0.9232776242091988    
    0.2902137707502628        0.9322569609094722    
    0.2956895022738527        0.9412867437730652    
    0.3011652337974425        0.9503611844909995    
    0.3066409653210324        0.9594744764475402    
    0.3121166968446223        0.9686207988285142    
    0.3175924283682121        0.9777943207291201    
    0.3230681598918020        0.9869892052577711    
    0.3285438914153919        0.9961996136325153    
    0.3340196229389817         1.005419709266615    
    0.3394953544625716         1.014643661839832    
    0.3449710859861614         1.023865651351997    
    0.3504468175097513         1.033079872155480    
    0.3559225490333412         1.042280536963155    
    0.3613982805569311         1.051461880828487    
    0.3668740120805209         1.060618165094433    
    0.3723497436041108         1.069743681307818    
    0.3778254751277006         1.078832755095930    
    0.3833012066512905         1.087879750002077    
    0.3887769381748803         1.096879071276924    
    0.3942526696984702         1.105825169622439    
    0.3997284012220601         1.114712544885358    
    0.4052041327456500         1.123535749697073    
    0.4106798642692398         1.132289393056986    
    0.4161555957928297         1.140968143856348    
    0.4216313273164196         1.149566734339699    
    0.4271070588400094         1.158079963501097    
    0.4325827903635993         1.166502700412368    
    0.4380585218871891         1.174829887480705    
    0.4435342534107790         1.183056543632969    
    0.4490099849343689         1.191177767424201    
    0.4544857164579588         1.199188740067850    
    0.4599614479815486         1.207084728385345    
    0.4654371795051385         1.214861087672745    
    0.4709129110287283         1.222513264482226    
    0.4763886425523182         1.230036799316318    
    0.4818643740759080         1.237427329232842    
    0.4873401055994979         1.244680590358665    
    0.4928158371230878         1.251792420310381    
    0.4982915686466777         1.258758760520237    
    0.5037673001702675         1.265575658465647    
    0.5092430316938574         1.272239269800769    
    0.5147187632174473         1.278745860388731    
    0.5201944947410371         1.285091808233182    
    0.5256702262646270         1.291273605307951    
    0.5311459577882168         1.297287859283718    
    0.5366216893118068         1.303131295150736    
    0.5420974208353966         1.308800756736660    
    0.5475731523589864         1.314293208118774    
    0.5530488838825763         1.319605734929946    
    0.5585246154061662         1.324735545557740    
    0.5640003469297560         1.329679972236306    
    0.5694760784533459         1.334436472030695    
    0.5749518099769357         1.339002627713429    
    0.5804275415005257         1.343376148533198    
    0.5859032730241155         1.347554870875768    
    0.5913790045477053         1.351536758817201    
    0.5968547360712952         1.355319904569660    
    0.6023304675948851         1.358902528820146    
    0.6078061991184749         1.362282980962674    
    0.6132819306420648         1.365459739224452    
    0.6187576621656546         1.368431410686783    
    0.6242333936892446         1.371196731201463    
    0.6297091252128344         1.373754565203619    
    0.6351848567364242         1.376103905421983    
    0.6406605882600142         1.378243872487739    
    0.6461363197836040         1.380173714443144    
    0.6516120513071939         1.381892806151246    
    0.6570877828307837         1.383400648608135    
    0.6625635143543736         1.384696868159216    
    0.6680392458779635         1.385781215621106    
    0.6735149774015533         1.386653565310862    
    0.6789907089251431         1.387313913984313    
    0.6844664404487331         1.387762379685352    
    0.6899421719723229         1.387999200508139    
    0.6954179034959128         1.388024733274224    
    0.7008936350195026         1.387839452126705    
    0.7063693665430925         1.387443947043587    
    0.7118450980666824         1.386838922272555    
    0.7173208295902722         1.386025194689477    
    0.7227965611138621         1.385003692083015    
    0.7282722926374520         1.383775451367746    
    0.7337480241610418         1.382341616728256    
    0.7392237556846317         1.380703437696763    
    0.7446994872082215         1.378862267166820    
    0.7501752187318114         1.376819559345716    
    0.7556509502554013         1.374576867648237    
    0.7611266817789911         1.372135842534469    
    0.7666024133025811         1.369498229294362    
    0.7720781448261709         1.366665865781823    
    0.7775538763497607         1.363640680101099    
    0.7830296078733506         1.360424688248221    
    0.7885053393969405         1.357019991710361    
    0.7939810709205304         1.353428775025907    
    0.7994568024441202         1.349653303308088    
    0.8049325339677100         1.345695919734954    
    0.8104082654913000         1.341559043008598    
    0.8158839970148898         1.337245164786435    
    0.8213597285384796         1.332756856029002    
    0.8268354600620695         1.328096767044082    
    0.8323111915856594         1.323267562913416    
    0.8377869231092493         1.318272000761846    
    0.8432626546328391         1.313112897714872    
    0.8487383861564289         1.307793128011370    
    0.8542141176800189         1.302315620317594    
    0.8596898492036087         1.296683355035352    
    0.8651655807271985         1.290899361607029    
    0.8706413122507884         1.284966715820055    
    0.8761170437743783         1.278888537113383    
    0.8815927752979682         1.272667985888550    
    0.8870685068215580         1.266308260827748    
    0.8925442383451478         1.259812596221378    
    0.8980199698687378         1.253184259307471    
    0.9034957013923276         1.246426547625281    
    0.9089714329159175         1.239542786385373    
    0.9144471644395074         1.232536325858373    
    0.9199228959630972         1.225410538784588    
    0.9253986274866871         1.218168817806574    
    0.9308743590102769         1.210814572926685    
    0.9363500905338668         1.203351228991579    
    0.9418258220574567         1.195782223205573    
    0.9473015535810465         1.188111002674718    
    0.9527772851046364         1.180341021983318    
    0.9582530166282263         1.172475740804636    
    0.9637287481518161         1.164518621547371    
    0.9692044796754060         1.156473127039483    
    0.9746802111989958         1.148342718250833    
    0.9801559427225858         1.140130852056078    
    0.9856316742461756         1.131840979039103    
    0.9911074057697654         1.123476541340311    
    0.9965831372933553         1.115040970547889    
     1.002058868816945         1.106537685634232    
     1.007534600340535         1.097970090938483    
     1.013010331864125         1.089341574196226    
     1.018486063387715         1.080655504617133    
     1.023961794911305         1.071915231011485    
     1.029437526434895         1.063124079966205    
     1.034913257958484         1.054285354071140    
     1.040388989482074         1.045402330196147    
     1.045864721005664         1.036478257819497    
     1.051340452529254         1.027516357408122    
     1.056816184052844         1.018519818849946    
     1.062291915576434         1.009491799938810    
     1.067767647100023         1.000435424912042    
     1.073243378623614        0.9913537830410061    
     1.078719110147203        0.9822499272746549    
     1.084194841670793        0.9731268729361623    
     1.089670573194383        0.9639875964726617    
     1.095146304717973        0.9548350342579217    
     1.100622036241563        0.9456720814480069    
     1.106097767765153        0.9365015908895586    
     1.111573499288742        0.9273263720805758    
     1.117049230812332        0.9181491901833496    
     1.122524962335922        0.9089727650892028    
     1.128000693859512        0.8997997705346966    
     1.133476425383102        0.8906328332687639    
     1.138952156906692        0.8814745322704074    
     1.144427888430282        0.8723273980163412    
     1.149903619953871        0.8631939117980222    
     1.155379351477461        0.8540765050874816    
     1.160855083001051        0.8449775589512588    
     1.166330814524641        0.8358994035118193    
     1.171806546048231        0.8268443174556813    
     1.177282277571821        0.8178145275875183    
     1.182758009095411        0.8088122084294604    
     1.188233740619001        0.7998394818647787    
     1.193709472142590        0.7908984168251079    
     1.199185203666180        0.7819910290203755    
     1.204660935189770        0.7731192807105401    
     1.210136666713360        0.7642850805182275    
     1.215612398236950        0.7554902832813860    
     1.221088129760540        0.7467366899449889    
     1.226563861284130        0.7380260474908430    
     1.232039592807719        0.7293600489046037    
     1.237515324331309        0.7207403331789040    
     1.242991055854899        0.7121684853517390    
     1.248466787378489        0.7036460365790858    
     1.253942518902079        0.6951744642407193    
     1.259418250425669        0.6867551920783490    
     1.264893981949259        0.6783895903649535    
     1.270369713472848        0.6700789761043630    
     1.275845444996438        0.6618246132601793    
     1.281321176520028        0.6536277130129129    
     1.286796908043618        0.6454894340444426    
     1.292272639567208        0.6374108828488624    
     1.297748371090798        0.6293931140685581    
     1.303224102614388        0.6214371308547556    
     1.308699834137978        0.6135438852515190    
     1.314175565661567        0.6057142786021675    
     1.319651297185157        0.5979491619773456    
     1.325127028708747        0.5902493366237260    
     1.330602760232337        0.5826155544323947    
     1.336078491755927        0.5750485184262145    
     1.341554223279517        0.5675488832651018    
     1.347029954803107        0.5601172557684455    
     1.352505686326696        0.5527541954539040    
     1.357981417850286        0.5454602150916202    
     1.363457149373876        0.5382357812730965    
     1.368932880897466        0.5310813149940938    
     1.374408612421056        0.5239971922505592    
     1.379884343944646        0.5169837446469999    
     1.385360075468236        0.5100412600166162    
     1.390835806991826        0.5031699830523365    
     1.396311538515415        0.4963701159481726    
     1.401787270039005        0.4896418190503388    
     1.407263001562595        0.4829852115172936    
     1.412738733086185        0.4764003719882373    
     1.418214464609775        0.4698873392595140    
     1.423690196133365        0.4634461129682058    
     1.429165927656955        0.4570766542824642    
     1.434641659180544        0.4507788865981170    
     1.440117390704134        0.4445526962409502    
     1.445593122227724        0.4383979331742011    
     1.451068853751314        0.4323144117109510    
     1.456544585274904        0.4263019112307663    
     1.462020316798494        0.4203601768984551    
     1.467496048322084        0.4144889203037493    
     1.472971779845673        0.4086878202057553    
     1.478447511369263        0.4029565235271470    
     1.483923242892853        0.3972946463387415    
     1.489398974416443        0.3917017746513937    
     1.494874705940033        0.3861774638234551    
     1.500350437463623        0.3807212385616052    
     1.505826168987213        0.3753325935826241    
     1.511301900510803        0.3700109970156026    
     1.516777632034392        0.3647558948137163    
     1.522253363557982        0.3595667154361456    
     1.527729095081572        0.3544428748272073    
     1.533204826605162        0.3493837811361632    
     1.538680558128752        0.3443888389750798    
     1.544156289652342        0.3394574520800751    
     1.549632021175932        0.3345890232147910    
     1.555107752699521        0.3297829537394839    
     1.560583484223111        0.3250386425208388    
     1.566059215746701        0.3203554865269763    
     1.571534947270291        0.3157328813268329    
     1.577010678793881        0.3111702217450910    
     1.582486410317471        0.3066669022341468    
     1.587962141841061        0.3022223169801788    
     1.593437873364651        0.2978358602316241    
     1.598913604888240        0.2935069264813308    
     1.604389336411830        0.2892349108117432    
     1.609865067935420        0.2850192091173593    
     1.615340799459010        0.2808592183192637    
     1.620816530982600        0.2767543365918598    
     1.626292262506190        0.2727039635804831    
     1.631767994029780        0.2687075005981516    
     1.637243725553369        0.2647643508270006    
     1.642719457076959        0.2608739194916284    
     1.648195188600549        0.2570356140369064    
     1.653670920124139        0.2532488442926322    
     1.659146651647729        0.2495130226311293    
     1.664622383171319        0.2458275641176379    
     1.670098114694909        0.2421918866513971    
     1.675573846218499        0.2386054110999603    
     1.681049577742088        0.2350675614260817    
     1.686525309265678        0.2315777648078901    
     1.692001040789268        0.2281354517523026    
     1.697476772312858        0.2247400562018643    
     1.702952503836448        0.2213910156356160    
     1.708428235360038        0.2180877711637927    
     1.713903966883628        0.2148297676166581    
     1.719379698407217        0.2116164536278869    
     1.724855429930807        0.2084472817125991    
     1.730331161454397        0.2053217083401846    
     1.735806892977987        0.2022391940019592    
     1.741282624501577        0.1991992032743088    
     1.746758356025167        0.1962012048770760    
     1.752234087548757        0.1932446717275219    
     1.757709819072346        0.1903290809898394    
     1.763185550595936        0.1874539141208507    
     1.768661282119526        0.1846186569115697    
     1.774137013643116        0.1818227995249738    
     1.779612745166706        0.1790658365300103    
     1.785088476690296        0.1763472669323426    
     1.790564208213886        0.1736665942015493    
     1.796039939737476        0.1710233262950746    
     1.801515671261065        0.1684169756790336    
     1.806991402784655        0.1658470593461997    
     1.812467134308245        0.1633130988310048    
     1.817942865831835        0.1608146202217525    
     1.823418597355425        0.1583511541702149    
     1.828894328879015        0.1559222358988229    
     1.834370060402605        0.1535274052053418    
     1.839845791926194        0.1511662064651804    
     1.845321523449784        0.1488381886315256    
     1.850797254973374        0.1465429052334462    
     1.856272986496964        0.1442799143718863    
     1.861748718020554        0.1420487787136788    
     1.867224449544144        0.1398490654837346    
     1.872700181067734        0.1376803464555597    
     1.878175912591324        0.1355421979399999    
     1.883651644114913        0.1334342007723562    
     1.889127375638503        0.1313559402979579    
     1.894603107162093        0.1293070063563957    
     1.900078838685683        0.1272869932642682    
     1.905554570209273        0.1252954997966118    
     1.911030301732863        0.1233321291670179    
     1.916506033256453        0.1213964890067155    
     1.921981764780042        0.1194881913424041    
     1.927457496303632        0.1176068525730495    
     1.932933227827222        0.1157520934455652    
     1.938408959350812        0.1139235390297109    
     1.943884690874402        0.1121208186919627    
     1.949360422397992        0.1103435660685715    
     1.954836153921581        0.1085914190377048    
     1.960311885445172        0.1068640196909909    
     1.965787616968761        0.1051610143042500    
     1.971263348492351        0.1034820533075852    
     1.976739080015941        0.1018267912547781    
     1.982214811539531        0.1001948867921703    
     1.987690543063121        0.9858600262697816E-01
     1.993166274586711        0.9699980549508364E-01
     1.998642006110301        0.9543596612833778E-01
     2.004117737633890        0.9389415922140731E-01
     2.009593469157480        0.9237406339827839E-01
     2.015069200681070        0.9087536117832838E-01
     2.020544932204660        0.8939773894207508E-01
     2.026020663728250        0.8794088689657548E-01
     2.031496395251840        0.8650449904058864E-01
     2.036972126775430        0.8508827312944786E-01
     2.042447858299020        0.8369191063971097E-01
     2.047923589822609        0.8231511673358310E-01
     2.053399321346199        0.8095760022317380E-01
     2.058875052869789        0.7961907353460021E-01
     2.064350784393379        0.7829925267193723E-01
     2.069826515916969        0.7699785718105545E-01
     2.075302247440558        0.7571461011337312E-01
     2.080777978964148        0.7444923798951188E-01
     2.086253710487738        0.7320147076290721E-01
     2.091729442011328        0.7197104178337492E-01
     2.097205173534918        0.7075768776066467E-01
     2.102680905058508        0.6956114872799679E-01
     2.108156636582098        0.6838116800560856E-01
     2.113632368105688        0.6721749216432778E-01
     2.119108099629277        0.6606987098917849E-01
     2.124583831152867        0.6493805744308151E-01
     2.130059562676457        0.6382180763055076E-01
     2.135535294200047        0.6272088076151133E-01
     2.141011025723637        0.6163503911519433E-01
     2.146486757247227        0.6056404800414403E-01
     2.151962488770817        0.5950767573835048E-01
     2.157438220294407        0.5846569358945024E-01
     2.162913951817997        0.5743787575510268E-01
     2.168389683341586        0.5642399932348113E-01
     2.173865414865176        0.5542384423797381E-01
     2.179341146388766        0.5443719326196839E-01
     2.184816877912356        0.5346383194382230E-01
     2.190292609435946        0.5250354858202048E-01
     2.195768340959535        0.5155613419048351E-01
     2.201244072483125        0.5062138246415712E-01
     2.206719804006716        0.4969908974465095E-01
     2.212195535530305        0.4878905498616228E-01
     2.217671267053895        0.4789107972158192E-01
     2.223146998577485        0.4700496802879956E-01
     2.228622730101075        0.4613052649730166E-01
     2.234098461624665        0.4526756419484299E-01
     2.239574193148254        0.4441589263443957E-01
     2.245049924671844        0.4357532574155253E-01
     2.250525656195434        0.4274567982151348E-01
     2.256001387719024        0.4192677352722653E-01
     2.261477119242614        0.4111842782698996E-01
     2.266952850766204        0.4032046597264330E-01
     2.272428582289794        0.3953271346792157E-01
     2.277904313813384        0.3875499803707492E-01
     2.283380045336973        0.3798714959375111E-01
     2.288855776860563        0.3722900021003474E-01
     2.294331508384153        0.3648038408581020E-01
     2.299807239907743        0.3574113751834020E-01
     2.305282971431333        0.3501109887212279E-01
     2.310758702954923        0.3429010854900721E-01
     2.316234434478512        0.3357800895848461E-01
     2.321710166002103        0.3287464448829890E-01
     2.327185897525692        0.3217986147528216E-01
     2.332661629049282        0.3149350817646381E-01
     2.338137360572872        0.3081543474044813E-01
     2.343613092096462        0.3014549317896686E-01
     2.349088823620052        0.2948353733874996E-01
     2.354564555143642        0.2882942287362537E-01
     2.360040286667231        0.2818300721687605E-01
     2.365516018190821        0.2754414955388821E-01
     2.370991749714411        0.2691271079495607E-01
     2.376467481238001        0.2628855354840498E-01
     2.381943212761591        0.2567154209394604E-01
     2.387418944285181        0.2506154235626521E-01
     2.392894675808771        0.2445842187892622E-01
     2.398370407332361        0.2386204979840734E-01
     2.403846138855950        0.2327229681845572E-01
     2.409321870379540        0.2268903518466807E-01
     2.414797601903130        0.2211213865929506E-01
     2.420273333426720        0.2154148249634908E-01
     2.425749064950310        0.2097694341686029E-01
     2.431224796473900        0.2041839958441838E-01
     2.436700527997490        0.1986573058094270E-01
     2.442176259521080        0.1931881738267522E-01
     2.447651991044669        0.1877754233643167E-01
     2.453127722568259        0.1824178913605388E-01
     2.458603454091849        0.1771144279908804E-01
     2.464079185615439        0.1718638964369950E-01
     2.469554917139029        0.1666651726580653E-01
     2.475030648662619        0.1615171451643424E-01
     2.480506380186208        0.1564187148091124E-01
     2.485982111709798        0.1513687954853413E-01
     2.491457843233388        0.1463663251198727E-01
     2.496933574756978        0.1414103149190215E-01
     2.502409306280568        0.1364999577802350E-01
     2.507885037804158        0.1316347756578902E-01
     2.513360769327748        0.1268147611858267E-01
     2.518836500851338        0.1220404783266218E-01
     2.524312232374927        0.1173131086394776E-01
     2.529787963898517        0.1126344465644799E-01
     2.535263695422107        0.1080068551575075E-01
     2.540739426945697        0.1034331954070593E-01
     2.546215158469287        0.9891674074500558E-02
     2.551690889992877        0.9446108574160259E-02
     2.557166621516467        0.9007005534116045E-02
     2.562642353040057        0.8574761878686776E-02
     2.568118084563646        0.8149781069999581E-02
     2.573593816087236        0.7732466057284106E-02
     2.579069547610826        0.7323213111268635E-02
     2.584545279134416        0.6922406533907999E-02
     2.590021010658006        0.6530414200776249E-02
     2.595496742181596        0.6147583874771463E-02
     2.600972473705185        0.5774240220653624E-02
     2.606448205228776        0.5410682446991010E-02
     2.611923936752365        0.5057182502995760E-02
     2.617399668275955        0.4713983760875272E-02
     2.622875399799545        0.4381300118618515E-02
     2.628351131323135        0.4059315462817446E-02
     2.633826862846725        0.3748183435698949E-02
     2.639302594370315        0.3448027454590189E-02
     2.644778325893904        0.3158940935247359E-02
     2.650254057417494        0.2880987672471870E-02
     2.655729788941084        0.2614202331731448E-02
     2.661205520464674        0.2358591003334189E-02
     2.666681251988264        0.2114131764874844E-02
     2.672156983511854        0.1880775185946251E-02
     2.677632715035444        0.1658444687620454E-02
     2.683108446559034        0.1447036630448868E-02
     2.688584178082623        0.1246419933913447E-02
     2.694059909606213        0.1056434896251821E-02
     2.699535641129803        0.8768906163049891E-03
     2.705011372653393        0.7075598468551534E-03
     2.710487104176983        0.5481687642008312E-03
     2.715962835700573        0.3983755550438219E-03
     2.721438567224163        0.2577203051281648E-03
     2.726914298747753        0.1254804780012672E-03
     2.732390030271342         0.000000000000000    
  0  6  1  0  2.000000   #orbital l, n, z, is_polarized, population
 500    0.1371539501987594E-01     6.843982114918092     # npts, delta, cutoff
     0.000000000000000        0.3721641034880369    
    0.1371539501987594E-01    0.3725073587602998    