<preamble>

<basis_specs>
===============================================================================
P                    Z=  15    Mass=  30.974        Charge= 0.17977+309
Lmxo=2 Lmxkb= 2    BasisType=split      Semic=F
L=0  Nsemic=0  Cnfigmx=3
          i=1  nzeta=2  polorb=0  (3s)
            splnorm:   0.15000    
               vcte:    40.000    
               rinn:    4.6345    
               qcoe:    0.0000    
               qyuk:    0.0000    
               qwid:   0.10000E-01
                rcs:    5.1494      3.4972    
            lambdas:    1.0000      1.0000    
L=1  Nsemic=0  Cnfigmx=3
          i=1  nzeta=2  polorb=1  (3p)  (to be polarized perturbatively)
            splnorm:   0.15000    
               vcte:    40.000    
               rinn:    5.8646    
               qcoe:    0.0000    
               qyuk:    0.0000    
               qwid:   0.10000E-01
                rcs:    6.5097      4.4889    
            lambdas:    1.0000      1.0000    
L=2  Nsemic=0  Cnfigmx=3
          i=1  nzeta=0  polorb=0  (3d)  (perturbative polarization orbital) (from 3p)
-------------------------------------------------------------------------------
L=0  Nkbl=1  erefs: 0.17977+309
L=1  Nkbl=1  erefs: 0.17977+309
L=2  Nkbl=1  erefs: 0.17977+309
===============================================================================
</basis_specs>

<pseudopotential_header>
 P  pb nrl pcec
 ONCVPSP-3.2017-10-31Hamann's oncvpsp                        
 3s 2.00  r= 1.46/3p 3.00  r= 1.55/3d 0.00  r= 1.71/                    3s:3p:
</pseudopotential_header>
</preamble>
P                             # Symbol
P                             # Label
   15                         # Atomic number
     5.00000000000                             # Valence charge
     30.9740000000        # Mass 
     26.5883422033        # Self energy 
   2   5                      # Lmax for basis, no. of nl orbitals 
   2   6                      # Lmax for projectors, no. of nl KB projectors
# PAOs:__________________________
  0  3  1  0  2.000000   #orbital l, n, z, is_polarized, population
 500    0.1031953731367369E-01     5.149449119523172     # npts, delta, cutoff
     0.000000000000000        0.9229745352894102E-01
    0.1031953731367369E-01    0.9239806762583054E-01
    0.2063907462734738E-01    0.9270218774758400E-01
    0.3095861194102107E-01    0.9320896663306187E-01
    0.4127814925469476E-01    0.9391826728682184E-01
    0.5159768656836845E-01    0.9482989004022568E-01
    0.6191722388204214E-01    0.9594356451716184E-01
    0.7223676119571583E-01    0.9725893971175761E-01
    0.8255629850938952E-01    0.9877557227737714E-01
    0.9287583582306320E-01    0.1004929132445202    
    0.1031953731367369        0.1024102934248712    
    0.1135149104504106        0.1045269077868810    
    0.1238344477640843        0.1068417991100706    
    0.1341539850777580        0.1093538412411997    
    0.1444735223914317        0.1120617222854514    
    0.1547930597051053        0.1149639280697124    
    0.1651125970187790        0.1180587262128426    
    0.1754321343324527        0.1213441511295611    
    0.1857516716461264        0.1248179902804018    
    0.1960712089598001        0.1284777719603763    
    0.2063907462734738        0.1323207548938900    
    0.2167102835871475        0.1363439198735540    
    0.2270298209008212        0.1405439636463792    
    0.2373493582144948        0.1449172952130565    
    0.2476688955281686        0.1494600346653089    
    0.2579884328418423        0.1541680146433944    
    0.2683079701555159        0.1590367844515446    
    0.2786275074691896        0.1640616168242108    
    0.2889470447828633        0.1692375172913289    
    0.2992665820965370        0.1745592360471657    
    0.3095861194102107        0.1800212821854956    
    0.3199056567238844        0.1856179401246147    
    0.3302251940375581        0.1913432880097341    
    0.3405447313512318        0.1971912178482619    
    0.3508642686649054        0.2031554571059100    
    0.3611838059785791        0.2092295914689923    
    0.3715033432922528        0.2154070884610265    
    0.3818228806059265        0.2216813215901786    
    0.3921424179196002        0.2280455946983163    
    0.4024619552332739        0.2344931661825710    
    0.4127814925469476        0.2410172727663212    
    0.4231010298606213        0.2476111525082366    
    0.4334205671742949        0.2542680667552028    
    0.4437401044879686        0.2609813207673217    
    0.4540596418016423        0.2677442827701479    
    0.4643791791153160        0.2745504012205364    
    0.4746987164289897        0.2813932201071994    
    0.4850182537426634        0.2882663921446995    
    0.4953377910563371        0.2951636897594190    
    0.5056573283700108        0.3020790138072897    
    0.5159768656836845        0.3090064000049763    
    0.5262964029973581        0.3159400230979409    
    0.5366159403110319        0.3228741988297271    
    0.5469354776247055        0.3298033838159580    
    0.5572550149383793        0.3367221734634366    
    0.5675745522520529        0.3436252981084258    
    0.5778940895657266        0.3505076175783838    
    0.5882136268794003        0.3573641144072706    
    0.5985331641930740        0.3641898859558218    
    0.6088527015067476        0.3709801357044156    
    0.6191722388204214        0.3777301639970205    
    0.6294917761340950        0.3844353585202188    
    0.6398113134477688        0.3910911848011472    
    0.6501308507614424        0.3976931770026393    
    0.6604503880751161        0.4042369292828576    
    0.6707699253887899        0.4107180879706405    
    0.6810894627024635        0.4171323447869371    
    0.6914090000161373        0.4234754313174369    
    0.7017285373298109        0.4297431149124998    
    0.7120480746434846        0.4359311961580377    
    0.7223676119571583        0.4420355080261553    
    0.7326871492708320        0.4480519167772702    
    0.7430066865845056        0.4539763246473421    
    0.7533262238981794        0.4598046743151367    
    0.7636457612118530        0.4655329551059338    
    0.7739652985255268        0.4711572108507885    
    0.7842848358392004        0.4766735492844331    
    0.7946043731528741        0.4820781528317671    
    0.8049239104665478        0.4873672906022194    
    0.8152434477802215        0.4925373313846845    
    0.8255629850938951        0.4975847574127517    
    0.8358825224075689        0.5025061786518877    
    0.8462020597212425        0.5072983473467081    
    0.8565215970349163        0.5119581725581708    
    0.8668411343485899        0.5164827344174791    
    0.8771606716622636        0.5208692978256017    
    0.8874802089759373        0.5251153253347741    
    0.8977997462896110        0.5292184889608268    
    0.9081192836032846        0.5331766806924980    
    0.9184388209169584        0.5369880214857454    
    0.9287583582306320        0.5406508685569159    
    0.9390778955443058        0.5441638208181824    
    0.9493974328579794        0.5475257223311311    
    0.9597169701716531        0.5507356636892161    
    0.9700365074853268        0.5537929812766522    
    0.9803560447990005        0.5566972543887772    
    0.9906755821126743        0.5594483002372119    
     1.000995119426348        0.5620461669007001    
     1.011314656740022        0.5644911243191936    
     1.021634194053695        0.5667836534636520    
     1.031953731367369        0.5689244338464610    
     1.042273268681043        0.5709143295670421    
     1.052592805994716        0.5727543741129141    
     1.062912343308390        0.5744457541587040    
     1.073231880622064        0.5759897926230130    
     1.083551417935738        0.5773879312559288    
     1.093870955249411        0.5786417130377923    
     1.104190492563085        0.5797527646726993    
     1.114510029876759        0.5807227794578890    
     1.124829567190432        0.5815535008027586    
     1.135149104504106        0.5822467066589552    
     1.145468641817780        0.5828041951060267    
     1.155788179131453        0.5832277713157792    
     1.166107716445127        0.5835192360932532    
     1.176427253758801        0.5836803761634289    
     1.186746791072474        0.5837129563410951    
     1.197066328386148        0.5836187136873519    
     1.207385865699822        0.5833993537204070    
     1.217705403013495        0.5830565487115278    
     1.228024940327169        0.5825919380597553    
     1.238344477640843        0.5820071307022278    
     1.248664014954517        0.5813037094808104    
     1.258983552268190        0.5804832373514264    
     1.269303089581864        0.5795472652903706    
     1.279622626895538        0.5784973417225194    
     1.289942164209211        0.5773350232701304    
     1.300261701522885        0.5760618865987261    
     1.310581238836559        0.5746795411183955    
     1.320900776150232        0.5731896422848074    
     1.331220313463906        0.5715939052353413    
     1.341539850777580        0.5698941184913163    
     1.351859388091253        0.5680921574575863    
     1.362178925404927        0.5661899974562606    
     1.372498462718601        0.5641897260409116    
     1.382818000032275        0.5620935567759717    
     1.393137537345948        0.5599038750748531    
     1.403457074659622        0.5576231241859384    
     1.413776611973296        0.5552539420200578    
     1.424096149286969        0.5527991216525160    
     1.434415686600643        0.5502616141549183    
     1.444735223914317        0.5476445287618409    
     1.455054761227990        0.5449511465316810    
     1.465374298541664        0.5421849075473260    
     1.475693835855338        0.5393493318325288    
     1.486013373169011        0.5364479195843550    
     1.496332910482685        0.5334840707772739    
     1.506652447796359        0.5304610670184279    
     1.516971985110032        0.5273820898847262    
     1.527291522423706        0.5242502243192295    
     1.537611059737380        0.5210684582445858    
     1.547930597051054        0.5178396853748852    
     1.558250134364727        0.5145667077365914    
     1.568569671678401        0.5112522381479672    
     1.578889208992075        0.5078989026340948    
     1.589208746305748        0.5045092422854170    
     1.599528283619422        0.5010857158650961    
     1.609847820933096        0.4976307018475291    
     1.620167358246769        0.4941465005277739    
     1.630486895560443        0.4906353362871330    
     1.640806432874117        0.4870993594139449    
     1.651125970187790        0.4835406481071541    
     1.661445507501464        0.4799612104868488    
     1.671765044815138        0.4763629864515952    
     1.682084582128812        0.4727478495081877    
     1.692404119442485        0.4691176085798824    
     1.702723656756159        0.4654740097625519    
     1.713043194069833        0.4618187380376085    
     1.723362731383506        0.4581534189456446    
     1.733682268697180        0.4544796202203120    
     1.744001806010854        0.4507988533832747    
     1.754321343324527        0.4471125753014774    
     1.764640880638201        0.4434221897074782    
     1.774960417951875        0.4397290486838106    
     1.785279955265548        0.4360344541121143    
     1.795599492579222        0.4323396590879577    
     1.805919029892896        0.4286458693020431    
     1.816238567206569        0.4249542443885589    
     1.826558104520243        0.4212658992413764    
     1.836877641833917        0.4175819052987921    
     1.847197179147591        0.4139032917974971    
     1.857516716461264        0.4102310469963628    
     1.867836253774938        0.4065661193706895    
     1.878155791088612        0.4029094187775085    
     1.888475328402285        0.3992618175925143    
     1.898794865715959        0.3956241518192279    
     1.909114403029633        0.3919972221708497    
     1.919433940343306        0.3883817951255042    
     1.929753477656980        0.3847786039551693    
     1.940073014970654        0.3811883497290711    
     1.950392552284327        0.3776117022918078    
     1.960712089598001        0.3740493012169073    
     1.971031626911675        0.3705017567361655    
     1.981351164225349        0.3669696506452513    
     1.991670701539022        0.3634535371862217    
     2.001990238852696        0.3599539439070877    
     2.012309776166370        0.3564713724993982    
     2.022629313480043        0.3530062996136448    
     2.032948850793717        0.3495591776535940    
     2.043268388107391        0.3461304355494925    
     2.053587925421064        0.3427204795108267    
     2.063907462734738        0.3393296937591422    
     2.074227000048412        0.3359584412409495    
     2.084546537362086        0.3326070643218443    
     2.094866074675759        0.3292758854613791    
     2.105185611989433        0.3259652078698962    
     2.115505149303107        0.3226753161472629    
     2.125824686616780        0.3194064769039374    
     2.136144223930454        0.3161589393651880    
     2.146463761244128        0.3129329359580732    
     2.156783298557801        0.3097286828824379    
     2.167102835871475        0.3065463806656596    
     2.177422373185149        0.3033862147017506    
     2.187741910498822        0.3002483557754254    
     2.198061447812496        0.2971329605708738    
     2.208380985126170        0.2940401721663389    
     2.218700522439843        0.2909701205142887    
     2.229020059753517        0.2879229229077110    
     2.239339597067191        0.2848986844331141    
     2.249659134380865        0.2818974984100223    
     2.259978671694538        0.2789194468178657    
     2.270298209008212        0.2759646007102459    
     2.280617746321886        0.2730330206168994    
     2.290937283635559        0.2701247569339361    
     2.301256820949233        0.2672398503022800    
     2.311576358262907        0.2643783319748947    
     2.321895895576580        0.2615402241730244    
     2.332215432890254        0.2587255404316012    
     2.342534970203928        0.2559342859342785    
     2.352854507517601        0.2531664578382672    
     2.363174044831275        0.2504220455892620    
     2.373493582144949        0.2477010312267386    
     2.383813119458623        0.2450033896798462    
     2.394132656772296        0.2423290890541760    
     2.404452194085970        0.2396780909095768    
     2.414771731399644        0.2370503505294605    
     2.425091268713317        0.2344458171815925    
     2.435410806026991        0.2318644343707170    
     2.445730343340665        0.2293061400832875    
     2.456049880654338        0.2267708670243456    
     2.466369417968012        0.2242585428469580    
     2.476688955281686        0.2217690903743917    
     2.487008492595359        0.2193024278150261    
     2.497328029909033        0.2168584689705026    
     2.507647567222707        0.2144371234371615    
     2.517967104536380        0.2120382968007735    
     2.528286641850054        0.2096618908251708    
     2.538606179163728        0.2073078036346450    
     2.548925716477402        0.2049759298902062    
     2.559245253791075        0.2026661609602942    
     2.569564791104749        0.2003783850857286    
     2.579884328418423        0.1981124875390663    
     2.590203865732096        0.1958683507788732    
     2.600523403045770        0.1936458545987194    
     2.610842940359444        0.1914448762710564    
     2.621162477673117        0.1892652906864539    
     2.631482014986791        0.1871069704879976    
     2.641801552300465        0.1849697862010329    
     2.652121089614138        0.1828536063586343    
     2.662440626927812        0.1807582976226779    
     2.672760164241486        0.1786837249006622    
     2.683079701555160        0.1766297514586111    
     2.693399238868833        0.1745962390299816    
     2.703718776182507        0.1725830479206958    
     2.714038313496181        0.1705900371105765    
     2.724357850809854        0.1686170643511478    
     2.734677388123528        0.1666639862599289    
     2.744996925437202        0.1647306584114049    
     2.755316462750875        0.1628169354247166    
     2.765636000064549        0.1609226710481647    
     2.775955537378223        0.1590477182406577    
     2.786275074691896        0.1571919292501878    
     2.796594612005570        0.1553551556894152    
     2.806914149319244        0.1535372486084614    
     2.817233686632917        0.1517380585650000    
     2.827553223946591        0.1499574356917214    
     2.837872761260265        0.1481952297612713    
     2.848192298573939        0.1464512902487063    
     2.858511835887612        0.1447254663915844    
     2.868831373201286        0.1430176072477521    
     2.879150910514960        0.1413275617508849    
     2.889470447828633        0.1396551787638729    
     2.899789985142307        0.1380003071301225    
     2.910109522455981        0.1363627957228181    
     2.920429059769654        0.1347424934922216    
     2.930748597083328        0.1331392495110801    
     2.941068134397002        0.1315529130181941    
     2.951387671710675        0.1299833334602075    
     2.961707209024349        0.1284303605316789    
     2.972026746338023        0.1268938442134875    
     2.982346283651697        0.1253736348096276    
     2.992665820965370        0.1238695829824485    
     3.002985358279044        0.1223815397863814    
     3.013304895592718        0.1209093567002085    
     3.023624432906391        0.1194528856579338    
     3.033943970220065        0.1180119790782839    
     3.044263507533739        0.1165864898928713    
     3.054583044847412        0.1151762715731179    
     3.064902582161086        0.1137811781559287    
     3.075222119474760        0.1124010642681671    
     3.085541656788433        0.1110357851499784    
     3.095861194102107        0.1096851966770213    
     3.106180731415781        0.1083491553816116    
     3.116500268729454        0.1070275184727957    
     3.126819806043128        0.1057201438554682    
     3.137139343356802        0.1044268901484963    
     3.147458880670476        0.1031476167019026    
     3.157778417984149        0.1018821836131255    
     3.168097955297823        0.1006304517424459    
     3.178417492611497        0.9939228272754069E-01
     3.188737029925170        0.9816753899720727E-01
     3.199056567238844        0.9695608378431865E-01
     3.209376104552518        0.9575778113801758E-01
     3.219695641866191        0.9457249593516842E-01
     3.230015179179865        0.9340009389107799E-01
     3.240334716493539        0.9224044156956691E-01
     3.250654253807212        0.9109340639235612E-01
     3.260973791120886        0.8995885664781864E-01
     3.271293328434560        0.8883666149910228E-01
     3.281612865748233        0.8772669099167901E-01
     3.291932403061907        0.8662881606033400E-01
     3.302251940375581        0.8554290853550908E-01
     3.312571477689255        0.8446884114913510E-01
     3.322891015002928        0.8340648754013230E-01
     3.333210552316602        0.8235572225907069E-01
     3.343530089630276        0.8131642077293295E-01
     3.353849626943949        0.8028845946878725E-01
     3.364169164257623        0.7927171565706155E-01
     3.374488701571297        0.7826606757481273E-01
     3.384808238884970        0.7727139438802588E-01
     3.395127776198644        0.7628757619419299E-01
     3.405447313512318        0.7531449402412076E-01
     3.415766850825991        0.7435202984332275E-01
     3.426086388139665        0.7340006655302682E-01
     3.436405925453339        0.7245848799104353E-01
     3.446725462767013        0.7152717893227711E-01
     3.457045000080686        0.7060602508943487E-01
     3.467364537394360        0.6969491311090152E-01
     3.477684074708034        0.6879373058181965E-01
     3.488003612021707        0.6790236602304062E-01
     3.498323149335381        0.6702070888999694E-01
     3.508642686649055        0.6614864957135011E-01
     3.518962223962728        0.6528607938742464E-01
     3.529281761276402        0.6443289058839739E-01
     3.539601298590076        0.6358897635224481E-01
     3.549920835903749        0.6275423078246636E-01
     3.560240373217423        0.6192854890559120E-01
     3.570559910531097        0.6111182666847904E-01
     3.580879447844770        0.6030396093542239E-01
     3.591198985158444        0.5950484948506111E-01
     3.601518522472118        0.5871439100711041E-01
     3.611838059785792        0.5793248509891212E-01
     3.622157597099465        0.5715903226182011E-01
     3.632477134413139        0.5639393389742535E-01
     3.642796671726813        0.5563709230362745E-01
     3.653116209040486        0.5488841067055546E-01
     3.663435746354160        0.5414779307635093E-01
     3.673755283667834        0.5341514448281718E-01
     3.684074820981507        0.5269037073093985E-01
     3.694394358295181        0.5197337853628195E-01
     3.704713895608855        0.5126407548426579E-01
     3.715033432922528        0.5056237002534129E-01
     3.725352970236202        0.4986817147005273E-01
     3.735672507549876        0.4918138998399894E-01
     3.745992044863550        0.4850193658270097E-01
     3.756311582177223        0.4782972312637818E-01
     3.766631119490897        0.4716466231464120E-01
     3.776950656804571        0.4650666768109916E-01
     3.787270194118244        0.4585565358789178E-01
     3.797589731431918        0.4521153522014836E-01
     3.807909268745592        0.4457422858037927E-01
     3.818228806059265        0.4394365048280307E-01
     3.828548343372939        0.4331971854760972E-01
     3.838867880686613        0.4270235119517001E-01
     3.849187418000286        0.4209146764018994E-01
     3.859506955313960        0.4148698788581792E-01
     3.869826492627634        0.4088883271770232E-01
     3.880146029941307        0.4029692369800777E-01
     3.890465567254981        0.3971118315939071E-01
     3.900785104568655        0.3913153419894013E-01
     3.911104641882329        0.3855790067208299E-01
     3.921424179196002        0.3799020718645824E-01
     3.931743716509676        0.3742837909576426E-01
     3.942063253823350        0.3687234249357955E-01
     3.952382791137023        0.3632202420716313E-01
     3.962702328450697        0.3577735179123188E-01
     3.973021865764371        0.3523825352172155E-01
     3.983341403078044        0.3470465838953259E-01
     3.993660940391718        0.3417649609426247E-01
     4.003980477705392        0.3365369703792749E-01
     4.014300015019066        0.3313619231867568E-01
     4.024619552332739        0.3262391372449289E-01
     4.034939089646413        0.3211679372690446E-01
     4.045258626960086        0.3161476547467425E-01
     4.055578164273760        0.3111776278750229E-01
     4.065897701587434        0.3062572014972378E-01
     4.076217238901108        0.3013857270401112E-01
     4.086536776214781        0.2965625624507888E-01
     4.096856313528455        0.2917870721339491E-01
     4.107175850842128        0.2870586268890088E-01
     4.117495388155803        0.2823766038473874E-01
     4.127814925469476        0.2777403864099071E-01
     4.138134462783150        0.2731493641842726E-01
     4.148454000096823        0.2686029329227021E-01
     4.158773537410497        0.2641004944597151E-01
     4.169093074724171        0.2596414566500452E-01
     4.179412612037845        0.2552252333067462E-01
     4.189732149351518        0.2508512441394468E-01
     4.200051686665192        0.2465189146928141E-01
     4.210371223978865        0.2422276762852215E-01
     4.220690761292539        0.2379769659476120E-01
     4.231010298606213        0.2337662263625891E-01
     4.241329835919887        0.2295949058037091E-01
     4.251649373233560        0.2254624580750395E-01
     4.261968910547234        0.2213683424509620E-01
     4.272288447860907        0.2173120236162041E-01
     4.282607985174582        0.2132929716061585E-01
     4.292927522488255        0.2093106617474205E-01
     4.303247059801929        0.2053645745986512E-01
     4.313566597115602        0.2014541958917022E-01
     4.323886134429276        0.1975790164730180E-01
     4.334205671742950        0.1937385322453511E-01
     4.344525209056624        0.1899322441097107E-01
     4.354844746370297        0.1861596579076986E-01
     4.365164283683971        0.1824202843641126E-01
     4.375483820997644        0.1787136390298500E-01
     4.385803358311319        0.1750392422251612E-01
     4.396122895624992        0.1713966189831552E-01
     4.406442432938666        0.1677852989937076E-01
     4.416761970252339        0.1642048165476599E-01
     4.427081507566013        0.1606547104813453E-01
     4.437401044879686        0.1571345241214706E-01
     4.447720582193361        0.1536438052302715E-01
     4.458040119507034        0.1501821059510827E-01
     4.468359656820708        0.1467489827542198E-01
     4.478679194134381        0.1433439963831935E-01
     4.488998731448055        0.1399667118012933E-01
     4.499318268761729        0.1366166981384664E-01
     4.509637806075403        0.1332935286385934E-01
     4.519957343389076        0.1299967806071094E-01
     4.530276880702750        0.1267260353589606E-01
     4.540596418016423        0.1234808781669247E-01
     4.550915955330098        0.1202608982102627E-01
     4.561235492643771        0.1170656885237185E-01
     4.571555029957445        0.1138948459469233E-01
     4.581874567271118        0.1107479710741086E-01
     4.592194104584792        0.1076246682041837E-01
     4.602513641898465        0.1045245452911775E-01
     4.612833179212140        0.1014472138949813E-01
     4.623152716525813        0.9839228913253227E-02
     4.633472253839487        0.9535938962929241E-02
     4.643791791153160        0.9234813747108881E-02
     4.654111328466834        0.8935815815632707E-02
     4.664430865780508        0.8638908054916286E-02
     4.674750403094182        0.8344053696376780E-02
     4.685069940407855        0.8051216653045078E-02
     4.695389477721529        0.7760364007727432E-02
     4.705709015035202        0.7471473726985466E-02
     4.716028552348877        0.7184547887983618E-02
     4.726348089662550        0.6899627654749192E-02
     4.736667626976224        0.6616805521440945E-02
     4.746987164289897        0.6336232263344224E-02
     4.757306701603571        0.6058118190752804E-02
     4.767626238917245        0.5782729606012776E-02
     4.777945776230919        0.5510381837667180E-02
     4.788265313544592        0.5241430200674371E-02
     4.798584850858266        0.4976259991701788E-02
     4.808904388171939        0.4715276339618304E-02
     4.819223925485613        0.4458894469858562E-02
     4.829543462799287        0.4207530732708363E-02
     4.839863000112961        0.3961594590918327E-02
     4.850182537426634        0.3721481653243331E-02
     4.860502074740308        0.3487567767225985E-02
     4.870821612053981        0.3260204137440136E-02
     4.881141149367656        0.3039713406823864E-02
     4.891460686681329        0.2826386622925179E-02
     4.901780223995003        0.2620481003659678E-02
     4.912099761308676        0.2422218415533930E-02
     4.922419298622350        0.2231784479181692E-02
     4.932738835936024        0.2049328221041142E-02
     4.943058373249698        0.1874962195114620E-02
     4.953377910563371        0.1708763004327183E-02
     4.963697447877045        0.1550772156611408E-02
     4.974016985190718        0.1400997196121430E-02
     4.984336522504393        0.1259413054710196E-02
     4.994656059818066        0.1125963572684411E-02
     5.004975597131740        0.1000563140583874E-02
     5.015295134445413        0.8830984148107065E-03
     5.025614671759087        0.7734300585522208E-03
     5.035934209072760        0.6713944541225306E-03
     5.046253746386435        0.5768053208852346E-03
     5.056573283700108        0.4894551489537143E-03
     5.066892821013782        0.4091163119126334E-03
     5.077212358327455        0.3355416277284292E-03
     5.087531895641129        0.2684639387567920E-03
     5.097851432954803        0.2075938309156500E-03
     5.108170970268477        0.1526134728107389E-03
     5.118490507582150        0.1031612182692221E-03
     5.128810044895824        0.5878997534291046E-04
     5.139129582209497        0.1881396349153483E-04
     5.149449119523172         0.000000000000000    
  0  3  2  0  0.000000   #orbital l, n, z, is_polarized, population
 500    0.7008499880158590E-02     3.497241440199136     # npts, delta, cutoff
     0.000000000000000       -0.2286172804600993    
    0.7008499880158590E-02   -0.2285310765318641    
    0.1401699976031718E-01   -0.2282682144101254    
    0.2102549964047577E-01   -0.2278301439619090    
    0.2803399952063436E-01   -0.2272169181010579    
    0.3504249940079295E-01   -0.2264286117843938    
    0.4205099928095154E-01   -0.2254653238207897    
    0.4905949916111013E-01   -0.2243271787877078    
    0.5606799904126872E-01   -0.2230143292923022    
    0.6307649892142730E-01   -0.2215269585851433    
    0.7008499880158589E-01   -0.2198652835088008    
    0.7709349868174449E-01   -0.2180295577563606    
    0.8410199856190308E-01   -0.2160200754110885    
    0.9111049844206166E-01   -0.2138371747355434    
    0.9811899832222026E-01   -0.2114812421760098    
    0.1051274982023788       -0.2089527165460360    
    0.1121359980825374       -0.2062520933511139    
    0.1191444979626960       -0.2033799292151133    
    0.1261529978428546       -0.2003368463679974    
    0.1331614977230132       -0.1971235371536013    
    0.1401699976031718       -0.1937407685158541    
    0.1471784974833304       -0.1901893864217795    