<preamble>

<basis_specs>
===============================================================================
Pb                   Z=  82    Mass=  207.20        Charge= 0.17977+309
Lmxo=2 Lmxkb= 3    BasisType=split      Semic=T
L=0  Nsemic=0  Cnfigmx=6
          i=1  nzeta=2  polorb=0  (6s)
            splnorm:   0.15000    
               vcte:    40.000    
               rinn:    5.1952    
               qcoe:    0.0000    
               qyuk:    0.0000    
               qwid:   0.10000E-01
                rcs:    5.7725      4.0405    
            lambdas:    1.0000      1.0000    
L=1  Nsemic=0  Cnfigmx=6
          i=1  nzeta=2  polorb=0  (6p)  (to be polarized non-perturbatively)
            splnorm:   0.15000    
               vcte:    40.000    
               rinn:    7.3835    
               qcoe:    0.0000    
               qyuk:    0.0000    
               qwid:   0.10000E-01
                rcs:    8.1957      5.9070    
            lambdas:    1.0000      1.0000    
L=2  Nsemic=1  Cnfigmx=6
          i=1  nzeta=1  polorb=0  (5d)  (semicore shell)
            splnorm:   0.15000    
               vcte:    40.000    
               rinn:    3.5005    
               qcoe:    0.0000    
               qyuk:    0.0000    
               qwid:   0.10000E-01
                rcs:    3.8894    
            lambdas:    1.0000    
          i=2  nzeta=1  polorb=0  (6d)  (non-perturbative polarization shell)
            splnorm:   0.15000    
               vcte:    40.000    
               rinn:    7.3835    
               qcoe:    0.0000    
               qyuk:    0.0000    
               qwid:   0.10000E-01
                rcs:    8.1957    
            lambdas:    1.0000    
-------------------------------------------------------------------------------
L=0  Nkbl=1  erefs: 0.17977+309
L=1  Nkbl=1  erefs: 0.17977+309
L=2  Nkbl=2  erefs: 0.17977+309 0.17977+309
L=3  Nkbl=1  erefs: 0.17977+309
===============================================================================
</basis_specs>

<pseudopotential_header>
 Pb pb nrl pcec
 ONCVPSP-4.2023-03-20Hamann's oncvpsp                        
 6s 2.00  r= 2.16/6p 2.00  r= 2.55/5d10.00  r= 2.11/5f 0.00  r= 2.11/   5d:6s:6p:
</pseudopotential_header>
</preamble>
Pb                            # Symbol
Pb                            # Label
   82                         # Atomic number
     14.0000000000                             # Valence charge
     207.200000000        # Mass 
     163.486243753        # Self energy 
   2   6                      # Lmax for basis, no. of nl orbitals 
   3   8                      # Lmax for projectors, no. of nl KB projectors
# PAOs:__________________________
  0  6  1  0  2.000000   #orbital l, n, z, is_polarized, population
 500    0.1156806325438330E-01     5.772463563937266     # npts, delta, cutoff
     0.000000000000000        0.5802026047986742E-01
    0.1156806325438330E-01    0.5809500213760771E-01
    0.2313612650876660E-01    0.5832312301101528E-01
    0.3470418976314990E-01    0.5870279292320512E-01
    0.4627225301753320E-01    0.5923321529454521E-01
    0.5784031627191649E-01    0.5991327964220949E-01
    0.6940837952629980E-01    0.6074156573838669E-01
    0.8097644278068310E-01    0.6171634914495374E-01
    0.9254450603506639E-01    0.6283560795267046E-01
    0.1041125692894497        0.6409703067757233E-01
    0.1156806325438330        0.6549802527497768E-01
    0.1272486957982163        0.6703572922880642E-01
    0.1388167590525996        0.6870702066962173E-01
    0.1503848223069829        0.7050853047033842E-01
    0.1619528855613662        0.7243665526420001E-01
    0.1735209488157495        0.7448757132552078E-01
    0.1850890120701328        0.7665724924984064E-01
    0.1966570753245161        0.7894146936659974E-01
    0.2082251385788994        0.8133583781420632E-01
    0.2197932018332827        0.8383580320447134E-01
    0.2313612650876660        0.8643667380082844E-01
    0.2429293283420493        0.8913363513256256E-01
    0.2544973915964326        0.9192176796543833E-01
    0.2660654548508159        0.9479606654767198E-01
    0.2776335181051992        0.9775145704911921E-01
    0.2892015813595825        0.1007828161108746    
    0.3007696446139658        0.1038849894221916    
    0.3123377078683491        0.1070528102417378    
    0.3239057711227324        0.1102811177807023    
    0.3354738343771157        0.1135647753661552    
    0.3470418976314990        0.1168986883043402    
    0.3586099608858823        0.1202778213652260    
    0.3701780241402656        0.1236972158116685    
    0.3817460873946489        0.1271520058989140    
    0.3933141506490322        0.1306374347729040    
    0.4048822139034154        0.1341488696988958    
    0.4164502771577988        0.1376818165553060    
    0.4280183404121821        0.1412319335313459    
    0.4395864036665654        0.1447950439709988    
    0.4511544669209487        0.1483671483100955    
    0.4627225301753319        0.1519444350577278    
    0.4742905934297152        0.1555232907779143    
    0.4858586566840986        0.1591003090323189    
    0.4974267199384819        0.1626722982498808    
    0.5089947831928652        0.1662362884944068    
    0.5205628464472485        0.1697895371065146    
    0.5321309097016318        0.1733295332017193    
    0.5436989729560151        0.1768540010119569    
    0.5552670362103984        0.1803609020633614    
    0.5668350994647816        0.1838484361886606    
    0.5784031627191649        0.1873150413780907    
    0.5899712259735482        0.1907593924782258    
    0.6015392892279315        0.1941803987535491    
    0.6131073524823148        0.1975772003309315    
    0.6246754157366982        0.2009491635524098    
    0.6362434789910815        0.2042958752667397    
    0.6478115422454648        0.2076171360951033    
    0.6593796054998481        0.2109129527110926    
    0.6709476687542314        0.2141835291795962    
    0.6825157320086146        0.2174292574034958    
    0.6940837952629979        0.2206507067311158    
    0.7056518585173812        0.2238486127811155    
    0.7172199217717645        0.2270238655449909    
    0.7287879850261478        0.2301774968305084    
    0.7403560482805311        0.2333106671122370    
    0.7519241115349145        0.2364246518578587    
    0.7634921747892978        0.2395208274011027    
    0.7750602380436811        0.2426006564339625    
    0.7866283012980644        0.2456656731923128    
    0.7981963645524477        0.2487174684101317    
    0.8097644278068309        0.2517576741182550    
    0.8213324910612142        0.2547879483639277    
    0.8329005543155975        0.2578099599274195    
    0.8444686175699808        0.2608253731115404    
    0.8560366808243641        0.2638358326791607    
    0.8676047440787474        0.2668429490127122    
    0.8791728073331307        0.2698482835681559    
    0.8907408705875141        0.2728533346940969    
    0.9023089338418974        0.2758595238845568    
    0.9138769970962807        0.2788681825314407    
    0.9254450603506639        0.2818805392399357    
    0.9370131236050472        0.2848977077670040    
    0.9485811868594305        0.2879206756397611    
    0.9601492501138138        0.2909502935069018    
    0.9717173133681971        0.2939872652724936    
    0.9832853766225804        0.2970321390573339    
    0.9948534398769637        0.3000852990288211    
     1.006421503131347        0.3031469581357997    
     1.017989566385730        0.3062171517802063    
     1.029557629640114        0.3092957324526535    
     1.041125692894497        0.3123823653541841    
     1.052693756148880        0.3154765250214153    
     1.064261819403264        0.3185774929674785    
     1.075829882657647        0.3216843563459875    
     1.087397945912030        0.3247960076402004    
     1.098966009166414        0.3279111453746040    
     1.110534072420797        0.3310282758412563    
     1.122102135675180        0.3341457158279326    
     1.133670198929563        0.3372615963307873    
     1.145238262183947        0.3403738672291992    
     1.156806325438330        0.3434803028959158    
     1.168374388692713        0.3465785087114170    
     1.179942451947096        0.3496659284467971    
     1.191510515201480        0.3527398524759116    
     1.203078578455863        0.3557974267731699    
     1.214646641710246        0.3588356626502388    
     1.226214704964630        0.3618514471813619    
     1.237782768219013        0.3648415542637629    
     1.249350831473396        0.3678026562573613    
     1.260918894727780        0.3707313361447974    
     1.272486957982163        0.3736241001512253    
     1.284055021236546        0.3764773907611674    
     1.295623084490930        0.3792876000679558    
     1.307191147745313        0.3820510833906600    
     1.318759210999696        0.3847641730917921    
     1.330327274254079        0.3874231925290680    
     1.341895337508463        0.3900244700740548    
     1.353463400762846        0.3925643531304517    
     1.365031464017229        0.3950392220857177    
     1.376599527271612        0.3974455041298574    
     1.388167590525996        0.3997796868768344    
     1.399735653780379        0.4020383317250390    
     1.411303717034762        0.4042180868953352    
     1.422871780289146        0.4063157000867691    
     1.434439843543529        0.4083280306928147    
     1.446007906797912        0.4102520615230841    
     1.457575970052296        0.4120849099784282    
     1.469144033306679        0.4138238386307591    
     1.480712096561062        0.4154662651613198    
     1.492280159815446        0.4170097716156680    
     1.503848223069829        0.4184521129362495    
     1.515416286324212        0.4197912247383577    
     1.526984349578596        0.4210252302978880    
     1.538552412832979        0.4221524467249892    
     1.550120476087362        0.4231713903003528    
     1.561688539341745        0.4240807809563771    
     1.573256602596129        0.4248795458890022    
     1.584824665850512        0.4255668222908398    
     1.596392729104895        0.4261419592002527    
     1.607960792359278        0.4266045184659060    
     1.619528855613662        0.4269542748300149    
     1.631096918868045        0.4271912151384939    
     1.642664982122428        0.4273155366899404    
     1.654233045376812        0.4273276447397656    
     1.665801108631195        0.4272281491796476    
     1.677369171885578        0.4270178604167437    
     1.688937235139962        0.4266977844801835    
     1.700505298394345        0.4262691173866256    
     1.712073361648728        0.4257332387995854    
     1.723641424903112        0.4250917050204757    
     1.735209488157495        0.4243462413525813    
     1.746777551411878        0.4234987338814095    
     1.758345614666261        0.4225512207177098    
     1.769913677920645        0.4215058827517065    
     1.781481741175028        0.4203650339686463    
     1.793049804429411        0.4191311113780061    
     1.804617867683795        0.4178066646109338    
     1.816185930938178        0.4163943455961815    
     1.827753994192561        0.4148968965667284    
     1.839322057446945        0.4133171400857046    
     1.850890120701328        0.4116579674933271    
     1.862458183955711        0.4099223276707881    
     1.874026247210094        0.4081132158046302    
     1.885594310464478        0.4062336622077786    
     1.897162373718861        0.4042867212517229    
     1.908730436973244        0.4022754604633366    
     1.920298500227628        0.4002029498377703    
     1.931866563482011        0.3980722514180293    
     1.943434626736394        0.3958864091891911    
     1.955002689990778        0.3936484393335998    
     1.966570753245161        0.3913613208905570    
     1.978138816499544        0.3890279868619571    
     1.989706879753927        0.3866513158019266    
     2.001274943008311        0.3842341239263385    
     2.012843006262694        0.3817791577742283    
     2.024411069517077        0.3792890874505001    
     2.035979132771461        0.3767665004753703    
     2.047547196025844        0.3742138962631749    
     2.059115259280227        0.3716336812494617    
     2.070683322534610        0.3690281646804248    
     2.082251385788994        0.3663995550784494    
     2.093819449043377        0.3637499573874799    
     2.105387512297761        0.3610813707984010    
     2.116955575552144        0.3583956872851838    
     2.128523638806527        0.3556946908260165    
     2.140091702060910        0.3529800572187251    
     2.151659765315294        0.3502533549091041    
     2.163227828569677        0.3475160448236536    
     2.174795891824060        0.3447694911498079    
     2.186363955078443        0.3420149887717764    
     2.197932018332827        0.3392537833466304    
     2.209500081587210        0.3364870731019903    
     2.221068144841594        0.3337160098150007    
     2.232636208095977        0.3309417004855947    
     2.244204271350360        0.3281652087001158    
     2.255772334604743        0.3253875560002050    
     2.267340397859126        0.3226097232125645    
     2.278908461113510        0.3198326517407794    
     2.290476524367893        0.3170572448209857    
     2.302044587622277        0.3142843687418286    
     2.313612650876660        0.3115148540295332    
     2.325180714131043        0.3087494965989716    
     2.336748777385426        0.3059890588714931    
     2.348316840639810        0.3032342708603132    
     2.359884903894193        0.3004858312242671    
     2.371452967148576        0.2977444082906810    
     2.383021030402960        0.2950106410482198    
     2.394589093657343        0.2922851401103445    
     2.406157156911726        0.2895684886502645    
     2.417725220166110        0.2868612433081067    
     2.429293283420493        0.2841639350709054    
     2.440861346674876        0.2814770701263732    
     2.452429409929259        0.2788011306909190    
     2.463997473183643        0.2761365758127429    
     2.475565536438026        0.2734838421507124    
     2.487133599692409        0.2708433447295313    
     2.498701662946793        0.2682154776720834    
     2.510269726201176        0.2656006149093855    
     2.521837789455559        0.2629991108688912    
     2.533405852709942        0.2604113011417415    
     2.544973915964326        0.2578375031290794    
     2.556541979218709        0.2552780166697466    
     2.568110042473092        0.2527331246473442    
     2.579678105727476        0.2502030935807607    
     2.591246168981859        0.2476881741907426    
     2.602814232236242        0.2451886019558222    
     2.614382295490626        0.2427045976469169    
     2.625950358745009        0.2402363678481318    
     2.637518421999392        0.2377841054571930    
     2.649086485253775        0.2353479901740045    
     2.660654548508159        0.2329281889722548    
     2.672222611762542        0.2305248565564346    
     2.683790675016926        0.2281381358046336    
     2.695358738271309        0.2257681581973482    
     2.706926801525692        0.2234150442327879    
     2.718494864780075        0.2210789038290513    
     2.730062928034458        0.2187598367136028    
     2.741630991288842        0.2164579328003981    
     2.753199054543225        0.2141732725550442    
     2.764767117797609        0.2119059273483417    
     2.776335181051992        0.2096559597985833    
     2.787903244306375        0.2074234241029263    
     2.799471307560758        0.2052083663581562    
     2.811039370815142        0.2030108248712106    
     2.822607434069525        0.2008308304597326    
     2.834175497323908        0.1986684067429525    
     2.845743560578291        0.1965235704232172    
     2.857311623832675        0.1943963315584405    
     2.868879687087058        0.1922866938257551    
     2.880447750341442        0.1901946547766163    
     2.892015813595825        0.1881202060836396    
     2.903583876850208        0.1860633337794177    
     2.915151940104591        0.1840240184875530    
     2.926720003358975        0.1820022356461504    
     2.938288066613358        0.1799979557240069    
     2.949856129867741        0.1780111444297184    
     2.961424193122125        0.1760417629139093    
     2.972992256376508        0.1740897679648094    
     2.984560319630891        0.1721551121973806    
     2.996128382885274        0.1702377442361911    
     3.007696446139658        0.1683376088922217    
     3.019264509394041        0.1664546473337985    
     3.030832572648424        0.1645887972518345    
     3.042400635902808        0.1627399930195563    
     3.053968699157191        0.1609081658468691    
     3.065536762411574        0.1590932439295450    
     3.077104825665958        0.1572951525933989    
     3.088672888920341        0.1555138144335872    
     3.100240952174724        0.1537491494491900    
     3.111809015429107        0.1520010751732203    
     3.123377078683491        0.1502695067982129    
     3.134945141937874        0.1485543572975188    
     3.146513205192258        0.1468555375424386    
     3.158081268446641        0.1451729564153300    
     3.169649331701024        0.1435065209188034    
     3.181217394955407        0.1418561362811535    
     3.192785458209791        0.1402217060581180    
     3.204353521464174        0.1386031322310790    
     3.215921584718557        0.1370003153018353    
     3.227489647972940        0.1354131543840450    
     3.239057711227324        0.1338415472914374    
     3.250625774481707        0.1322853906228924    
     3.262193837736090        0.1307445798445085    
     3.273761900990474        0.1292190093687287    
     3.285329964244857        0.1277085726306188    
     3.296898027499240        0.1262131621614097    
     3.308466090753623        0.1247326696593652    
     3.320034154008007        0.1232669860580753    
     3.331602217262390        0.1218160015922456    
     3.343170280516774        0.1203796058610688    
     3.354738343771157        0.1189576878892557    
     3.366306407025540        0.1175501361857917    
     3.377874470279923        0.1161568388005010    
     3.389442533534307        0.1147776833784803    
     3.401010596788690        0.1134125572124774    
     3.412578660043073        0.1120613472932730    
     3.424146723297457        0.1107239403581338    
     3.435714786551840        0.1094002229373948    
     3.447282849806223        0.1080900813992334    
     3.458850913060606        0.1067934019926938    
     3.470418976314990        0.1055100708890194    
     3.481987039569373        0.1042399742213420    
     3.493555102823756        0.1029829981227841    
     3.505123166078139        0.1017390287630284    
     3.516691229332523        0.1005079523833970    
     3.528259292586906        0.9928965533049763E-01
     3.539827355841290        0.9808402408847228E-01
     3.551395419095673        0.9689094530990705E-01
     3.562963482350056        0.9571030584543250E-01
     3.574531545604439        0.9454199277207277E-01
     3.586099608858823        0.9338589342036921E-01
     3.597667672113206        0.9224189540033124E-01
     3.609235735367589        0.9110988662624153E-01
     3.620803798621973        0.8998975534036296E-01
     3.632371861876356        0.8888139013558236E-01
     3.643939925130739        0.8778467997701979E-01
     3.655507988385123        0.8669951422264409E-01
     3.667076051639506        0.8562578264292223E-01
     3.678644114893889        0.8456337543954399E-01
     3.690212178148272        0.8351218326323953E-01
     3.701780241402655        0.8247209723073431E-01
     3.713348304657039        0.8144300894085825E-01
     3.724916367911422        0.8042481048985116E-01
     3.736484431165806        0.7941739448587302E-01
     3.748052494420189        0.7842065406276284E-01
     3.759620557674572        0.7743448289306552E-01
     3.771188620928955        0.7645877520035396E-01
     3.782756684183339        0.7549342577086256E-01
     3.794324747437722        0.7453832996446631E-01
     3.805892810692105        0.7359338372502129E-01
     3.817460873946489        0.7265848359009323E-01
     3.829028937200872        0.7173352670008935E-01
     3.840597000455255        0.7081841080682082E-01
     3.852165063709639        0.6991303428151360E-01
     3.863733126964022        0.6901729612228495E-01
     3.875301190218405        0.6813109596110570E-01
     3.886869253472788        0.6725433407026728E-01
     3.898437316727172        0.6638691136837109E-01
     3.910005379981555        0.6552872942585707E-01
     3.921573443235939        0.6467969047008688E-01
     3.933141506490322        0.6383969738999974E-01
     3.944709569744705        0.6300865374035453E-01
     3.956277632999088        0.6218646374557502E-01
     3.967845696253471        0.6137303230321083E-01
     3.979413759507855        0.6056826498703061E-01
     3.990981822762238        0.5977206804975898E-01
     4.002549886016621        0.5898434842547098E-01
     4.014117949271005        0.5820501373165850E-01
     4.025686012525388        0.5743397227097653E-01
     4.037254075779772        0.5667113303268886E-01
     4.048822139034154        0.5591640569381736E-01
     4.060390202288538        0.5516970062001030E-01
     4.071958265542921        0.5443092886613666E-01
     4.083526328797305        0.5370000217662416E-01
     4.095094392051688        0.5297683298554367E-01
     4.106662455306071        0.5226133441645435E-01
     4.118230518560455        0.5155342028201589E-01
     4.129798581814838        0.5085300508338122E-01
     4.141366645069221        0.5016000400937291E-01
     4.152934708323604        0.4947433293545842E-01
     4.164502771577988        0.4879590842252868E-01
     4.176070834832371        0.4812464771548591E-01
     4.187638898086754        0.4746046874164647E-01
     4.199206961341138        0.4680329010901935E-01
     4.210775024595521        0.4615303110433662E-01
     4.222343087849904        0.4550961169084070E-01
     4.233911151104287        0.4487295250652824E-01
     4.245479214358671        0.4424297486098081E-01
     4.257047277613054        0.4361960073160188E-01
     4.268615340867437        0.4300275276708641E-01
     4.280183404121821        0.4239235428118842E-01
     4.291751467376204        0.4178832924100365E-01
     4.303319530630588        0.4119060227253700E-01
     4.314887593884970        0.4059909866262560E-01
     4.326455657139354        0.4001374435128001E-01
     4.338023720393737        0.3943446592150124E-01
     4.349591783648121        0.3886119060246946E-01
     4.361159846902503        0.3829384626576671E-01
     4.372727910156887        0.3773236142080227E-01
     4.384295973411271        0.3717666521119008E-01
     4.395864036665654        0.3662668741104081E-01
     4.407432099920037        0.3608235842110288E-01
     4.419000163174420        0.3554360926488481E-01
     4.430568226428804        0.3501037158470971E-01
     4.442136289683187        0.3448257763767926E-01
     4.453704352937570        0.3396016029158796E-01
     4.465272416191953        0.3344305302078531E-01
     4.476840479446337        0.3293118990198664E-01
     4.488408542700720        0.3242450561003529E-01
     4.499976605955103        0.3192293541361899E-01
     4.511544669209487        0.3142641517094579E-01
     4.523112732463870        0.3093488132537853E-01
     4.534680795718253        0.3044827090103384E-01
     4.546248858972636        0.2996652149834715E-01
     4.557816922227020        0.2948957128960483E-01
     4.569384985481403        0.2901735901444873E-01
     4.580953048735786        0.2854982397535337E-01
     4.592521111990170        0.2808690603307781E-01
     4.604089175244553        0.2762854560209638E-01
     4.615657238498937        0.2717468364600840E-01
     4.627225301753319        0.2672526167292942E-01
     4.638793365007703        0.2628022173086686E-01
     4.650361428262086        0.2583950640308038E-01
     4.661929491516470        0.2540305880342988E-01
     4.673497554770853        0.2497082257171234E-01
     4.685065618025236        0.2454274186898918E-01
     4.696633681279620        0.2411876137290644E-01
     4.708201744534002        0.2369882627300786E-01
     4.719769807788386        0.2328288226604354E-01
     4.731337871042769        0.2287087555127534E-01
     4.742905934297153        0.2246275282577950E-01
     4.754473997551536        0.2205846127974993E-01
     4.766042060805919        0.2165794859179985E-01
     4.777610124060303        0.2126116292426685E-01
     4.789178187314686        0.2086805291851991E-01
     4.800746250569069        0.2047856769027023E-01
     4.812314313823452        0.2009265682488722E-01
     4.823882377077836        0.1971027037272039E-01
     4.835450440332219        0.1933135884442761E-01
     4.847018503586602        0.1895587320631182E-01
     4.858586566840986        0.1858376487566528E-01
     4.870154630095369        0.1821498571612470E-01
     4.881722693349753        0.1784948803303494E-01
     4.893290756604135        0.1748722456882526E-01
     4.904858819858519        0.1712814849839642E-01
     4.916426883112902        0.1677221342451996E-01
     4.927994946367286        0.1641937337325087E-01
     4.939563009621668        0.1606958278935410E-01
     4.951131072876052        0.1572279653174517E-01
     4.962699136130436        0.1537896986894564E-01
     4.974267199384818        0.1503805847455326E-01
     4.985835262639202        0.1470001842272895E-01
     4.997403325893585        0.1436480618369918E-01
     5.008971389147969        0.1403237861927615E-01
     5.020539452402351        0.1370269297839439E-01
     5.032107515656735        0.1337570689266500E-01
     5.043675578911119        0.1305137837194824E-01
     5.055243642165502        0.1272966579994369E-01
     5.066811705419885        0.1241052792980055E-01
     5.078379768674268        0.1209392387974486E-01
     5.089947831928652        0.1177981312872801E-01
     5.101515895183035        0.1146815551209334E-01
     5.113083958437418        0.1115891121726311E-01
     5.124652021691801        0.1085204077944556E-01
     5.136220084946185        0.1054750507736186E-01
     5.147788148200569        0.1024526532899413E-01
     5.159356211454951        0.9945283087353219E-02
     5.170924274709335        0.9647520236267844E-02
     5.182492337963718        0.9351938986194644E-02
     5.194060401218101        0.9058501870049238E-02
     5.205628464472484        0.8767171739058201E-02
     5.217196527726868        0.8477911758632408E-02
     5.228764590981251        0.8190685404333771E-02
     5.240332654235634        0.7905456471743689E-02
     5.251900717490018        0.7622189434737395E-02
     5.263468780744401        0.7340852085548603E-02
     5.275036843998785        0.7061423706967314E-02
     5.286604907253167        0.6783909055656351E-02
     5.298172970507551        0.6508354141102172E-02
     5.309741033761934        0.6234859041139040E-02
     5.321309097016318        0.5963585053068563E-02
     5.332877160270701        0.5694755772907749E-02
     5.344445223525084        0.5428653079754567E-02
     5.356013286779468        0.5165609500897944E-02
     5.367581350033851        0.4905998402112966E-02
     5.379149413288234        0.4650223188818923E-02
     5.390717476542617        0.4398706393911835E-02
     5.402285539797001        0.4151879248104138E-02
     5.413853603051384        0.3910172105275204E-02
     5.425421666305767        0.3674005929744803E-02
     5.436989729560151        0.3443784935754388E-02
     5.448557792814534        0.3219890390815969E-02
     5.460125856068917        0.3002675543924420E-02
     5.471693919323300        0.2792461608827548E-02
     5.483261982577684        0.2589534715453299E-02
     5.494830045832067        0.2394143734745802E-02
     5.506398109086450        0.2206498880361553E-02
     5.517966172340834        0.2026770992727600E-02
     5.529534235595217        0.1855091415320628E-02
     5.541102298849601        0.1691552378665779E-02
     5.552670362103983        0.1536207813757026E-02
     5.564238425358367        0.1389074522891825E-02
     5.575806488612750        0.1250133641945644E-02
     5.587374551867134        0.1119332333613339E-02
     5.598942615121516        0.9965856558649306E-03
     5.610510678375900        0.8817785534979266E-03
     5.622078741630284        0.7747679227731986E-03
     5.633646804884667        0.6753846989644167E-03
     5.645214868139050        0.5834359129267382E-03
     5.656782931393433        0.4987066530606515E-03
     5.668350994647817        0.4209618485295695E-03
     5.679919057902199        0.3499477484024171E-03
     5.691487121156583        0.2853928878186502E-03
     5.703055184410966        0.2270081548007282E-03
     5.714623247665350        0.1744851657122291E-03
     5.726191310919733        0.1274911282136221E-03
     5.737759374174116        0.8565534502948325E-04
     5.749327437428500        0.4853191868202032E-04
     5.760895500682883        0.1546088813108263E-04
     5.772463563937266         0.000000000000000    
  0  6  2  0  0.000000   #orbital l, n, z, is_polarized, population
 500    0.8097109026144316E-02     4.040457404046014     # npts, delta, cutoff
     0.000000000000000       -0.2624068489976497    
    0.8097109026144316E-02   -0.2623335627288260    
    0.1619421805228863E-01   -0.2621056330324636    
    0.2429132707843295E-01   -0.2617260050222854    
    0.3238843610457726E-01   -0.2611950645990702    
    0.4048554513072158E-01   -0.2605133499784415    
    0.4858265415686590E-01   -0.2596815512165382    
    0.5667976318301021E-01   -0.2587005089640502    
    0.6477687220915453E-01   -0.2575712128717050    