<preamble>

<basis_specs>
===============================================================================
Pd                   Z=  46    Mass=  106.42        Charge= 0.17977+309
Lmxo=2 Lmxkb= 2    BasisType=split      Semic=T
L=0  Nsemic=1  Cnfigmx=5
          i=1  nzeta=1  polorb=0  (4s)  (semicore shell)
            splnorm:   0.15000    
               vcte:    40.000    
               rinn:    2.4151    
               qcoe:    0.0000    
               qyuk:    0.0000    
               qwid:   0.10000E-01
                rcs:    2.6835    
            lambdas:    1.0000    
          i=2  nzeta=2  polorb=0  (5s)  (to be polarized non-perturbatively)
            splnorm:   0.15000    
               vcte:    40.000    
               rinn:    7.2444    
               qcoe:    0.0000    
               qyuk:    0.0000    
               qwid:   0.10000E-01
                rcs:    8.0493      5.7840    
            lambdas:    1.0000      1.0000    
L=1  Nsemic=1  Cnfigmx=5
          i=1  nzeta=1  polorb=0  (4p)  (semicore shell)
            splnorm:   0.15000    
               vcte:    40.000    
               rinn:    2.7517    
               qcoe:    0.0000    
               qyuk:    0.0000    
               qwid:   0.10000E-01
                rcs:    3.0574    
            lambdas:    1.0000    
          i=2  nzeta=1  polorb=0  (5p)  (non-perturbative polarization shell)
            splnorm:   0.15000    
               vcte:    40.000    
               rinn:    7.2517    
               qcoe:    0.0000    
               qyuk:    0.0000    
               qwid:   0.10000E-01
                rcs:    8.0493    
            lambdas:    1.0000    
L=2  Nsemic=0  Cnfigmx=4
          i=1  nzeta=2  polorb=0  (4d)
            splnorm:   0.15000    
               vcte:    40.000    
               rinn:    4.7999    
               qcoe:    0.0000    
               qyuk:    0.0000    
               qwid:   0.10000E-01
                rcs:    5.3279      3.3665    
            lambdas:    1.0000      1.0000    
-------------------------------------------------------------------------------
L=0  Nkbl=2  erefs: 0.17977+309 0.17977+309
L=1  Nkbl=2  erefs: 0.17977+309 0.17977+309
L=2  Nkbl=1  erefs: 0.17977+309
===============================================================================
</basis_specs>

<pseudopotential_header>
 Pd pb nrl pcec
 ONCVPSP-3.2017-10-31Hamann's oncvpsp                        
 4s 2.00  r= 1.41/4p 6.00  r= 1.46/4d10.00  r= 1.55/                    4s:4p:4d:
</pseudopotential_header>
</preamble>
Pd                            # Symbol
Pd                            # Label
   46                         # Atomic number
     18.0000000000                             # Valence charge
     106.420000000        # Mass 
     364.645565113        # Self energy 
   2   7                      # Lmax for basis, no. of nl orbitals 
   2   6                      # Lmax for projectors, no. of nl KB projectors
# PAOs:__________________________
  0  4  1  0  2.000000   #orbital l, n, z, is_polarized, population
 500    0.5377692631784396E-02     2.683468623260413     # npts, delta, cutoff
     0.000000000000000        0.8483149868922348    
    0.5377692631784396E-02    0.8484142290479856    
    0.1075538526356879E-01    0.8487880136343778    
    0.1613307789535319E-01    0.8494107007462989    
    0.2151077052713758E-01    0.8502818007761742    
    0.2688846315892198E-01    0.8514006430438047    
    0.3226615579070637E-01    0.8527663684761858    
    0.3764384842249077E-01    0.8543779292112201    
    0.4302154105427516E-01    0.8562340892076025    
    0.4839923368605956E-01    0.8583334252026047    
    0.5377692631784396E-01    0.8606743278851966    
    0.5915461894962835E-01    0.8632550032474786    
    0.6453231158141275E-01    0.8660734741011122    
    0.6991000421319714E-01    0.8691275817526581    
    0.7528769684498154E-01    0.8724149878341956    
    0.8066538947676594E-01    0.8759331762864999    
    0.8604308210855033E-01    0.8796794554923707    
    0.9142077474033472E-01    0.8836509605577683    
    0.9679846737211911E-01    0.8878446557383822    
    0.1021761600039035        0.8922573370091733    
    0.1075538526356879        0.8968856347743176    
    0.1129315452674723        0.9017260167148621    
    0.1183092378992567        0.9067747907712991    
    0.1236869305310411        0.9120281082581077    
    0.1290646231628255        0.9174819671072064    
    0.1344423157946099        0.9231322152371599    
    0.1398200084263943        0.9289745540448126    
    0.1451977010581787        0.9350045420159586    
    0.1505753936899631        0.9412175984515158    
    0.1559530863217475        0.9476090073055631    
    0.1613307789535319        0.9541739211315043    
    0.1667084715853163        0.9609073651325236    
    0.1720861642171007        0.9678042413123856    
    0.1774638568488850        0.9748593327225320    
    0.1828415494806694        0.9820673078013920    
    0.1882192421124538        0.9894227248016563    
    0.1935969347442382        0.9969200363012565    
    0.1989746273760226         1.004553593793666    
    0.2043523200078070         1.012317652353103    
    0.2097300126395914         1.020206375370125    
    0.2151077052713758         1.028213839353065    
    0.2204853979031602         1.036334038790660    
    0.2258630905349446         1.044560891071236    
    0.2312407831667290         1.052888241453713    
    0.2366184757985134         1.061309868085670    
    0.2419961684302978         1.069819487063654    
    0.2473738610620822         1.078410757530955    
    0.2527515536938666         1.087077286807937    
    0.2581292463256510         1.095812635550083    
    0.2635069389574354         1.104610322928838    
    0.2688846315892198         1.113463831830339    
    0.2742623242210042         1.122366614067197    
    0.2796400168527886         1.131312095598278    
    0.2850177094845729         1.140293681751724    
    0.2903954021163573         1.149304762446224    
    0.2957730947481417         1.158338717405694    
    0.3011507873799262         1.167388921362494    
    0.3065284800117106         1.176448749244338    
    0.3119061726434950         1.185511581340107    
    0.3172838652752794         1.194570808439804    
    0.3226615579070637         1.203619836943900    
    0.3280392505388481         1.212652093937391    
    0.3334169431706325         1.221661032223971    
    0.3387946358024169         1.230640135315689    
    0.3441723284342013         1.239582922373627    
    0.3495500210659857         1.248482953095112    
    0.3549277136977701         1.257333832543122    
    0.3603054063295545         1.266129215913530    
    0.3656830989613389         1.274862813236009    
    0.3710607915931233         1.283528394004436    
    0.3764384842249077         1.292119791732730    
    0.3818161768566921         1.300630908432192    
    0.3871938694884764         1.309055719006450    
    0.3925715621202609         1.317388275560263    
    0.3979492547520453         1.325622711618539    
    0.4033269473838297         1.333753246251951    
    0.4087046400156141         1.341774188105805    
    0.4140823326473985         1.349679939328753    
    0.4194600252791829         1.357464999398180    
    0.4248377179109672         1.365123968839175    
    0.4302154105427516         1.372651552834112    
    0.4355931031745360         1.380042564720044    
    0.4409707958063204         1.387291929371157    
    0.4463484884381048         1.394394686463729    
    0.4517261810698892         1.401345993621207    
    0.4571038737016736         1.408141129437027    
    0.4624815663334580         1.414775496373067    
    0.4678592589652424         1.421244623531718    
    0.4732369515970268         1.427544169299674    
    0.4786146442288112         1.433669923861744    
    0.4839923368605956         1.439617811583071    
    0.4893700294923800         1.445383893258350    
    0.4947477221241644         1.450964368226766    
    0.5001254147559487         1.456355576351480    
    0.5055031073877332         1.461553999862712    
    0.5108808000195175         1.466556265063558    
    0.5162584926513020         1.471359143897901    
    0.5216361852830864         1.475959555379829    
    0.5270138779148708         1.480354566884200    
    0.5323915705466552         1.484541395298137    
    0.5377692631784395         1.488517408033365    
    0.5431469558102240         1.492280123899432    
    0.5485246484420083         1.495827213838047    
    0.5539023410737928         1.499156501518951    
    0.5592800337055771         1.502265963797699    
    0.5646577263373616         1.505153731036164    
    0.5700354189691459         1.507818087286485    
    0.5754131116009303         1.510257470339353    
    0.5807908042327147         1.512470471637823    
    0.5861684968644991         1.514455836057810    
    0.5915461894962835         1.516212461556613    
    0.5969238821280679         1.517739398690980    
    0.6023015747598524         1.519035850006334    
    0.6076792673916367         1.520101169298899    
    0.6130569600234211         1.520934860752585    
    0.6184346526552055         1.521536577952655    
    0.6238123452869899         1.521906122778242    
    0.6291900379187743         1.522043444176007    
    0.6345677305505587         1.521948636817221    
    0.6399454231823430         1.521621939640738    
    0.6453231158141275         1.521063734284411    
    0.6507008084459118         1.520274543407630    
    0.6560785010776963         1.519255028907699    
    0.6614561937094806         1.518005990032895    
    0.6668338863412651         1.516528361395182    
    0.6722115789730494         1.514823210885543    
    0.6775892716048338         1.512891737495069    
    0.6829669642366182         1.510735269044969    
    0.6883446568684026         1.508355259828726    
    0.6937223495001871         1.505753288169721    
    0.6991000421319714         1.502931053897725    
    0.7044777347637559         1.499890375747633    
    0.7098554273955402         1.496633188683974    
    0.7152331200273246         1.493161541154697    
    0.7206108126591090         1.489477592277824    
    0.7259885052908934         1.485583608964562    
    0.7313661979226778         1.481481962982541    
    0.7367438905544622         1.477175127962836    
    0.7421215831862465         1.472665676354474    
    0.7474992758180310         1.467956276330119    
    0.7528769684498153         1.463049688646708    
    0.7582546610815998         1.457948763464134    
    0.7636323537133841         1.452656437446750    
    0.7690100463451686         1.447175729721491    
    0.7743877389769529         1.441509739045051    
    0.7797654316087373         1.435661640689210    
    0.7851431242405218         1.429634682936455    
    0.7905208168723061         1.423432183729588    
    0.7958985095040906         1.417057527305979    
    0.8012762021358749         1.410514160820118    
    0.8066538947676594         1.403805590958069    
    0.8120315873994437         1.396935380547359    
    0.8174092800312281         1.389907145165858    
    0.8227869726630125         1.382724549753108    
    0.8281646652947969         1.375391305227518    
    0.8335423579265813         1.367911165112816    
    0.8389200505583657         1.360287922177040    
    0.8442977431901501         1.352525405087374    
    0.8496754358219345         1.344627475083943    
    0.8550531284537188         1.336598022675731    
    0.8604308210855033         1.328440964361648    
    0.8658085137172877         1.320160239379738    
    0.8711862063490721         1.311759806487375    
    0.8765638989808565         1.303243640775299    
    0.8819415916126409         1.294615730518201    
    0.8873192842444253         1.285880074064481    
    0.8926969768762096         1.277040676767755    
    0.8980746695079941         1.268101547962554    
    0.9034523621397784         1.259066697986571    
    0.9088300547715629         1.249940135251749    
    0.9142077474033472         1.240725863366360    
    0.9195854400351317         1.231427878310152    
    0.9249631326669160         1.222050165664569    
    0.9303408252987004         1.212596697899839    
    0.9357185179304848         1.203071431720807    
    0.9410962105622692         1.193478305473036    
    0.9464739031940537         1.183821236610924    
    0.9518515958258380         1.174104119229065    
    0.9572292884576225         1.164330821658464    
    0.9626069810894068         1.154505184128549    
    0.9679846737211912         1.144631016496460    
    0.9733623663529756         1.134712096044286    
    0.9787400589847600         1.124752165345548    
    0.9841177516165444         1.114754930201380    
    0.9894954442483288         1.104724057647480    
    0.9948731368801131         1.094663174032142    
     1.000250829511897         1.084575863166108    
     1.005628522143682         1.074465664544526    
     1.011006214775466         1.064336071641325    
     1.016383907407251         1.054190530276359    
     1.021761600039035         1.044032437055125    
     1.027139292670820         1.033865137881574    
     1.032516985302604         1.023691926543289    
     1.037894677934388         1.013516043369570    
     1.043272370566173         1.003340673961519    
     1.048650063197957        0.9931689479942571    
     1.054027755829742        0.9830039380905977    
     1.059405448461526        0.9728486587656426    
     1.064783141093310        0.9627060654420314    
     1.070160833725095        0.9525790535345793    
     1.075538526356879        0.9424704576042841    
     1.080916218988663        0.9323830505801424    
     1.086293911620448        0.9223195430484811    
     1.091671604252232        0.9122825826085943    
     1.097049296884017        0.9022747532935105    
     1.102426989515801        0.8922985750552934    
     1.107804682147586        0.8823565033130253    
     1.113182374779370        0.8724509285630677    
     1.118560067411154        0.8625841760497576    
     1.123937760042939        0.8527585054954578    
     1.129315452674723        0.8429761108888437    
     1.134693145306507        0.8332391203294898    
     1.140070837938292        0.8235495959280706    
     1.145448530570076        0.8139095337601135    
     1.150826223201861        0.8043208638720979    
     1.156203915833645        0.7947854503385322    
     1.161581608465429        0.7853050913680346    
     1.166959301097214        0.7758815194574213    
     1.172336993728998        0.7665164015918225    
     1.177714686360783        0.7572113394893312    
     1.183092378992567        0.7479678698888361    
     1.188470071624351        0.7387874648790455    
     1.193847764256136        0.7296715322674326    
     1.199225456887920        0.7206214159873703    
     1.204603149519705        0.7116383965417492    
     1.209980842151489        0.7027236914817220    
     1.215358534783273        0.6938784559187651    
     1.220736227415058        0.6851037830685750    
     1.226113920046842        0.6764007048252445    
     1.231491612678627        0.6677701923641273    
     1.236869305310411        0.6592131567718958    
     1.242246997942195        0.6507304497022413    
     1.247624690573980        0.6423228640558566    
     1.253002383205764        0.6339911346830015    
     1.258380075837549        0.6257359391074511    
     1.263757768469333        0.6175578982703841    
     1.269135461101117        0.6094575772926563    
     1.274513153732902        0.6014354862544311    
     1.279890846364686        0.5934920809906661    
     1.285268538996470        0.5856277639011099    
     1.290646231628255        0.5778428847739532    
     1.296023924260039        0.5701377416215638    
     1.301401616891824        0.5625125815272582    
     1.306779309523608        0.5549676015023739    
     1.312157002155393        0.5475029493520148    
     1.317534694787177        0.5401187245487536    
     1.322912387418961        0.5328149791137001    
     1.328290080050746        0.5255917185031884    
     1.333667772682530        0.5184489025008062    
     1.339045465314314        0.5113864461142120    
     1.344423157946099        0.5044042204750018    
     1.349800850577883        0.4975020537417169    
     1.355178543209668        0.4906797320054769    
     1.360556235841452        0.4839370001964211    
     1.365933928473236        0.4772735629535159    
     1.371311621105021        0.4706890854334361    
     1.376689313736805        0.4641831944939512    
     1.382067006368590        0.4577554798633390    
     1.387444699000374        0.4514054953330596    
     1.392822391632158        0.4451327583005417    
     1.398200084263943        0.4389367496220587    
     1.403577776895727        0.4328169143468173    
     1.408955469527512        0.4267726656585813    
     1.414333162159296        0.4208033902659509    
     1.419710854791080        0.4149084541462735    
     1.425088547422865        0.4090872086994307    
     1.430466240054649        0.4033389964653966    
     1.435843932686434        0.3976631562831985    
     1.441221625318218        0.3920590253837480    
     1.446599317950002        0.3865259390296968    
     1.451977010581787        0.3810632295393551    
     1.457354703213571        0.3756702257731708    
     1.462732395845356        0.3703462540651197    
     1.468110088477140        0.3650906388611694    
     1.473487781108924        0.3599027033323479    
     1.478865473740709        0.3547817696620509    
     1.484243166372493        0.3497271593254769    
     1.489620859004278        0.3447381935476228    
     1.494998551636062        0.3398141935326084    
     1.500376244267846        0.3349544808125886    
     1.505753936899631        0.3301583775206133    
     1.511131629531415        0.3254252066914519    
     1.516509322163200        0.3207542925519047    
     1.521887014794984        0.3161449607708615    
     1.527264707426768        0.3115965387042813    
     1.532642400058553        0.3071083556333271    
     1.538020092690337        0.3026797429845772    
     1.543397785322121        0.2983100345562682    
     1.548775477953906        0.2939985667097900    
     1.554153170585690        0.2897446785627242    
     1.559530863217475        0.2855477121730612    
     1.564908555849259        0.2814070127132225    
     1.570286248481044        0.2773219286323156    
     1.575663941112828        0.2732918118198421    
     1.581041633744612        0.2693160177210450    
     1.586419326376397        0.2653939055031375    
     1.591797019008181        0.2615248381763207    
     1.597174711639965        0.2577081827169111    
     1.602552404271750        0.2539433101817382    
     1.607930096903534        0.2502295958116864    
     1.613307789535319        0.2465664191296895    
     1.618685482167103        0.2429531640478128    
     1.624063174798887        0.2393892189427856    
     1.629440867430672        0.2358739767406895    
     1.634818560062456        0.2324068349919684    
     1.640196252694241        0.2289871959382336    
     1.645573945326025        0.2256144665815031    
     1.650951637957810        0.2222880587409151    
     1.656329330589594        0.2190073891082602    
     1.661707023221378        0.2157718792962829    
     1.667084715853163        0.2125809558833988    
     1.672462408484947        0.2094340504543723    
     1.677840101116731        0.2063305996360227    
     1.683217793748516        0.2032700451297305    
     1.688595486380300        0.2002518337394776    
     1.693973179012085        0.1972754173962527    
     1.699350871643869        0.1943402531788444    
     1.704728564275653        0.1914458033313962    
     1.710106256907438        0.1885915352775837    
     1.715483949539222        0.1857769216315710    
     1.720861642171007        0.1830014402060797    
     1.726239334802791        0.1802645740176435    
     1.731617027434575        0.1775658112890794    
     1.736994720066360        0.1749046454492002    
     1.742372412698144        0.1722805751302580    
     1.747750105329928        0.1696931041629283    
     1.753127797961713        0.1671417415690354    
     1.758505490593497        0.1646260015519623    
     1.763883183225282        0.1621454034852469    
     1.769260875857066        0.1596994718990925    
     1.774638568488851        0.1572877364650424    
     1.780016261120635        0.1549097319787496    
     1.785393953752419        0.1525649983412840    
     1.790771646384204        0.1502530805387076    
     1.796149339015988        0.1479735286201708    
     1.801527031647773        0.1457258976744683    
     1.806904724279557        0.1435097478054040    
     1.812282416911341        0.1413246441057640    
     1.817660109543126        0.1391701566301006    
     1.823037802174910        0.1370458603662957    
     1.828415494806694        0.1349513352061590    
     1.833793187438479        0.1328861659149311    
     1.839170880070263        0.1308499420998461    
     1.844548572702048        0.1288422581777539    
     1.849926265333832        0.1268627133419571    
     1.855303957965617        0.1249109115282185    
     1.860681650597401        0.1229864613800356    
     1.866059343229185        0.1210889762132184    
     1.871437035860970        0.1192180739798324    
     1.876814728492754        0.1173733772315403    
     1.882192421124538        0.1155545130823864    
     1.887570113756323        0.1137611131710912    
     1.892947806388107        0.1119928136228473    
     1.898325499019892        0.1102492550106976    
     1.903703191651676        0.1085300823165106    
     1.909080884283460        0.1068349448916282    
     1.914458576915245        0.1051634964171648    
     1.919836269547029        0.1035153948640032    
     1.925213962178814        0.1018903024525528    
     1.930591654810598        0.1002878856122817    
     1.935969347442382        0.9870781494106361E-01
     1.941347040074167        0.9714976516429874E-01
     1.946724732705951        0.9561341509393433E-01
     1.952102425337735        0.9409844758734408E-01
     1.957480117969520        0.9260454950616888E-01
     1.962857810601304        0.9113141167499320E-01
     1.968235503233089        0.8967872884002974E-01
     1.973613195864873        0.8824619962775099E-01
     1.978990888496658        0.8683352650356259E-01
     1.984368581128442        0.8544041573042400E-01
     1.989746273760226        0.8406657732751960E-01
     1.995123966392011        0.8271172502898090E-01
     2.000501659023795        0.8137557624267540E-01
     2.005879351655580        0.8005785200908787E-01
     2.011257044287364        0.7875827696025242E-01
     2.016634736919148        0.7747657927882777E-01
     2.022012429550933        0.7621249065727780E-01
     2.027390122182717        0.7496574625721962E-01
     2.032767814814501        0.7373608466887369E-01
     2.038145507446286        0.7252324787069692E-01
     2.043523200078070        0.7132698118918258E-01
     2.048900892709855        0.7014703325884175E-01
     2.054278585341639        0.6898315598237617E-01
     2.059656277973423        0.6783510449104301E-01
     2.065033970605208        0.6670263710523359E-01
     2.070411663236992        0.6558551529526990E-01
     2.075789355868777        0.6448350364241641E-01
     2.081167048500561        0.6339636980013411E-01
     2.086544741132346        0.6232388445556725E-01
     2.091922433764130        0.6126582129127685E-01
     2.097300126395914        0.6022195694722281E-01
     2.102677819027698        0.5919207098298918E-01
     2.108055511659483        0.5817594584030020E-01
     2.113433204291268        0.5717336680577900E-01
     2.118810896923052        0.5618412197398883E-01
     2.124188589554836        0.5520800221073050E-01
     2.129566282186621        0.5424480111663081E-01
     2.134943974818405        0.5329431499102240E-01
     2.140321667450189        0.5235634279609306E-01
     2.145699360081974        0.5143068612133467E-01
     2.151077052713758        0.5051714914824883E-01
     2.156454745345543        0.4961553861539100E-01
     2.161832437977327        0.4872566378368625E-01
     2.167210130609111        0.4784733640204045E-01
     2.172587823240896        0.4698037067325933E-01
     2.177965515872680        0.4612458322023150E-01
     2.183343208504465        0.4527979305246302E-01
     2.188720901136249        0.4444582153288174E-01
     2.194098593768033        0.4362249234494860E-01
     2.199476286399818        0.4280963146007120E-01
     2.204853979031602        0.4200706710530201E-01
     2.210231671663387        0.4121462973138105E-01
     2.215609364295171        0.4043215198105343E-01
     2.220987056926955        0.3965946865772150E-01
     2.226364749558740        0.3889641669436136E-01
     2.231742442190524        0.3814283512255635E-01
     2.237120134822308        0.3739856504227864E-01
     2.242497827454093        0.3666344959161985E-01
     2.247875520085878        0.3593733391686803E-01
     2.253253212717662        0.3522006514300606E-01
     2.258630905349446        0.3451149234462855E-01
     2.264008597981230        0.3381146651658114E-01
     2.269386290613015        0.3311984054535734E-01
     2.274763983244799        0.3243646918034503E-01
     2.280141675876584        0.3176120900596419E-01
     2.285519368508368        0.3109391841536355E-01
     2.290897061140153        0.3043445758075636E-01
     2.296274753771937        0.2978268842713580E-01
     2.301652446403721        0.2913847460620939E-01
     2.307030139035505        0.2850168146972049E-01
     2.312407831667290        0.2787217603681263E-01
     2.317785524299075        0.2724982697601539E-01
     2.323163216930859        0.2663450457633381E-01
     2.328540909562643        0.2602608072076430E-01
     2.333918602194428        0.2542442885828581E-01
     2.339296294826212        0.2482942399418425E-01
     2.344673987457996        0.2424094264784649E-01
     2.350051680089781        0.2365886283335564E-01
     2.355429372721565        0.2308306403562262E-01
     2.360807065353350        0.2251342718669879E-01
     2.366184757985134        0.2194983464246080E-01
     2.371562450616918        0.2139217015903153E-01
     2.376940143248703        0.2084031886950372E-01
     2.382317835880487        0.2029416726096769E-01
     2.387695528512272        0.1975360315176478E-01
     2.393073221144056        0.1921851566892836E-01
     2.398450913775840        0.1868879522596915E-01
     2.403828606407625        0.1816433350092661E-01
     2.409206299039409        0.1764502341462099E-01
     2.414583991671194        0.1713075910913774E-01
     2.419961684302978        0.1662143592654904E-01
     2.425339376934762        0.1611695038786314E-01
     2.430717069566547        0.1561720017225235E-01
     2.436094762198331        0.1512208410882918E-01
     2.441472454830115        0.1463150247900739E-01
     2.446850147461900        0.1414535936141548E-01
     2.452227840093685        0.1366356997204690E-01
     2.457605532725469        0.1318607336084886E-01
     2.462983225357253        0.1271284698322382E-01
     2.468360917989037        0.1224391892236634E-01
     2.473738610620822        0.1177937529984926E-01
     2.479116303252606        0.1131936242252752E-01
     2.484493995884391        0.1086408444580686E-01
     2.489871688516175        0.1041379779111977E-01
     2.495249381147960        0.9968803544854977E-02
     2.500627073779744        0.9529438851443948E-02
     2.506004766411528        0.9096068050563826E-02
     2.511382459043313        0.8669074069677731E-02
     2.516760151675097        0.8248850392693761E-02
     2.522137844306882        0.7835793784829161E-02
     2.527515536938666        0.7430297855324252E-02
     2.532893229570450        0.7032747473948203E-02
     2.538270922202235        0.6643514015513862E-02
     2.543648614834019        0.6262951381751056E-02
     2.549026307465803        0.5891392736535220E-02
     2.554404000097588        0.5529147884703041E-02
     2.559781692729372        0.5176501223765224E-02
     2.565159385361157        0.4833710199828580E-02
     2.570537077992941        0.4501004202675429E-02
     2.575914770624725        0.4178583839299858E-02
     2.581292463256510        0.3866620529699307E-02
     2.586670155888294        0.3565256372887338E-02
     2.592047848520079        0.3274604234613915E-02
     2.597425541151863        0.2994748010789885E-02
     2.602803233783647        0.2725743021729520E-02
     2.608180926415432        0.2467616491441555E-02
     2.613558619047216        0.2220368062391414E-02
     2.618936311679001        0.1983970287803356E-02
     2.624314004310785        0.1758369027821442E-02
     2.629691696942569        0.1543483647401477E-02
     2.635069389574354        0.1339206862385004E-02
     2.640447082206138        0.1145403984870954E-02
     2.645824774837922        0.9619111342478233E-03
     2.651202467469707        0.7885315995339646E-03
     2.656580160101492        0.6250286876729205E-03
     2.661957852733276        0.4711112734868528E-03
     2.667335545365060        0.3264021463554144E-03
     2.672713237996845        0.1903574616048585E-03
     2.678090930628629        0.6198437483911113E-04
     2.683468623260413         0.000000000000000    
  0  5  1  0  1.000000   #orbital l, n, z, is_polarized, population
 500    0.1613091195121724E-01     8.049325063657403     # npts, delta, cutoff
     0.000000000000000        0.3543602306308080    
    0.1613091195121724E-01    0.3547255766360782    
    0.3226182390243448E-01    0.3558494535706289    