<preamble>

<basis_specs>
===============================================================================
Rb                   Z=  37    Mass=  85.468        Charge= 0.17977+309
Lmxo=1 Lmxkb= 2    BasisType=split      Semic=T
L=0  Nsemic=1  Cnfigmx=5
          i=1  nzeta=1  polorb=0  (4s)  (semicore shell)
            splnorm:   0.15000    
               vcte:    40.000    
               rinn:    3.5607    
               qcoe:    0.0000    
               qyuk:    0.0000    
               qwid:   0.10000E-01
                rcs:    3.9523    
            lambdas:    1.0000    
          i=2  nzeta=2  polorb=0  (5s)  (to be polarized non-perturbatively)
            splnorm:   0.15000    
               vcte:    40.000    
               rinn:    9.9599    
               qcoe:    0.0000    
               qyuk:    0.0000    
               qwid:   0.10000E-01
                rcs:    11.067      8.3782    
            lambdas:    1.0000      1.0000    
L=1  Nsemic=1  Cnfigmx=5
          i=1  nzeta=1  polorb=0  (4p)  (semicore shell)
            splnorm:   0.15000    
               vcte:    40.000    
               rinn:    4.3119    
               qcoe:    0.0000    
               qyuk:    0.0000    
               qwid:   0.10000E-01
                rcs:    4.7910    
            lambdas:    1.0000    
          i=2  nzeta=1  polorb=0  (5p)  (non-perturbative polarization shell)
            splnorm:   0.15000    
               vcte:    40.000    
               rinn:    9.9699    
               qcoe:    0.0000    
               qyuk:    0.0000    
               qwid:   0.10000E-01
                rcs:    11.067    
            lambdas:    1.0000    
-------------------------------------------------------------------------------
L=0  Nkbl=2  erefs: 0.17977+309 0.17977+309
L=1  Nkbl=2  erefs: 0.17977+309 0.17977+309
L=2  Nkbl=1  erefs: 0.17977+309
===============================================================================
</basis_specs>

<pseudopotential_header>
 Rb pb nrl pcec
 ONCVPSP-4.2023-03-20Hamann's oncvpsp                        
 4s 2.00  r= 1.70/4p 6.00  r= 1.70/4d 0.00  r= 1.70/4f 0.00  r= 1.70/   4s:4p:5s:
</pseudopotential_header>
</preamble>
Rb                            # Symbol
Rb                            # Label
   37                         # Atomic number
     9.00000000000                             # Valence charge
     85.4680000000        # Mass 
     56.6960416464        # Self energy 
   1   5                      # Lmax for basis, no. of nl orbitals 
   2   6                      # Lmax for projectors, no. of nl KB projectors
# PAOs:__________________________
  0  4  1  0  2.000000   #orbital l, n, z, is_polarized, population
 500    0.7920481769536844E-02     3.952320402998885     # npts, delta, cutoff
     0.000000000000000        0.1249101086211942    
    0.7920481769536844E-02    0.1250327541738980    
    0.1584096353907369E-01    0.1254061940433590    
    0.2376144530861053E-01    0.1260282371459634    
    0.3168192707814738E-01    0.1268983461524085    
    0.3960240884768422E-01    0.1280157707894561    
    0.4752289061722106E-01    0.1293795487169236    
    0.5544337238675791E-01    0.1309885070961911    
    0.6336385415629475E-01    0.1328412645473661    
    0.7128433592583160E-01    0.1349362334536203    
    0.7920481769536844E-01    0.1372716225960856    
    0.8712529946490528E-01    0.1398454401061304    
    0.9504578123444213E-01    0.1426554967217727    
    0.1029662630039790        0.1456994093341800    
    0.1108867447735158        0.1489746048092661    
    0.1188072265430527        0.1524783240684778    
    0.1267277083125895        0.1562076264120273    
    0.1346481900821264        0.1601593940670898    
    0.1425686718516632        0.1643303369428709    
    0.1504891536212000        0.1687169975739454    
    0.1584096353907369        0.1733157562328919    
    0.1663301171602737        0.1781228361929986    
    0.1742505989298106        0.1831343091216945    
    0.1821710806993474        0.1883461005853563    
    0.1900915624688843        0.1937539956462782    
    0.1980120442384211        0.1993536445328382    
    0.2059325260079579        0.2051405683642681    
    0.2138530077774948        0.2111101649119228    
    0.2217734895470316        0.2172577143795456    
    0.2296939713165685        0.2235783851857283    
    0.2376144530861053        0.2300672397325697    
    0.2455349348556422        0.2367192401454344    
    0.2534554166251790        0.2435292539696864    
    0.2613758983947159        0.2504920598113292    
    0.2692963801642527        0.2576023529096066    
    0.2772168619337895        0.2648547506307789    
    0.2851373437033264        0.2722437978735261    
    0.2930578254728632        0.2797639723776765    
    0.3009783072424000        0.2874096899292270    
    0.3088987890119369        0.2951753094559468    
    0.3168192707814738        0.3030551380091083    
    0.3247397525510106        0.3110434356282203    
    0.3326602343205475        0.3191344200868719    
    0.3405807160900843        0.3273222715190617    
    0.3485011978596211        0.3356011369265738    
    0.3564216796291580        0.3439651345691195    
    0.3643421613986948        0.3524083582400618    
    0.3722626431682317        0.3609248814315554    
    0.3801831249377685        0.3695087613938970    
    0.3881036067073054        0.3781540430947625    
    0.3960240884768422        0.3868547630847526    
    0.4039445702463790        0.3956049532764006    
    0.4118650520159159        0.4043986446443448    
    0.4197855337854527        0.4132298708548791    
    0.4277060155549895        0.4220926718334431    
    0.4356264973245264        0.4309810972789098    
    0.4435469790940633        0.4398892101336476    
    0.4514674608636001        0.4488110900184090    
    0.4593879426331370        0.4577408366410182    
    0.4673084244026738        0.4666725731876285    
    0.4752289061722106        0.4756004497050870    
    0.4831493879417475        0.4845186464824933    
    0.4910698697112843        0.4934213774396183    
    0.4989903514808212        0.5023028935291857    
    0.5069108332503580        0.5111574861594336    
    0.5148313150198949        0.5199794906425573    
    0.5227517967894317        0.5287632896738218    
    0.5306722785589686        0.5375033168452545    
    0.5385927603285054        0.5461940601968502    
    0.5465132420980422        0.5548300658072330    
    0.5544337238675791        0.5634059414246737    
    0.5623542056371159        0.5719163601382763    
    0.5702746874066528        0.5803560640880531    
    0.5781951691761896        0.5887198682115629    
    0.5861156509457265        0.5970026640235208    
    0.5940361327152633        0.6051994234239364    
    0.6019566144848001        0.6133052025290118    
    0.6098770962543369        0.6213151455181714    
    0.6177975780238738        0.6292244884894821    
    0.6257180597934107        0.6370285633148485    
    0.6336385415629475        0.6447228014853681    
    0.6415590233324844        0.6523027379365059    
    0.6494795051020212        0.6597640148419335    
    0.6573999868715581        0.6671023853641974    
    0.6653204686410950        0.6743137173498321    
    0.6732409504106317        0.6813939969559902    
    0.6811614321801686        0.6883393321953547    
    0.6890819139497054        0.6951459563856228    
    0.6970023957192423        0.7018102314899967    
    0.7049228774887791        0.7083286513346129    
    0.7128433592583160        0.7146978446892687    
    0.7207638410278528        0.7209145781977025    
    0.7286843227973896        0.7269757591440581    
    0.7366048045669265        0.7328784380424783    
    0.7445252863364633        0.7386198110372693    
    0.7524457681060002        0.7441972221016686    
    0.7603662498755370        0.7496081650239037    
    0.7682867316450739        0.7548502851699960    
    0.7762072134146107        0.7599213810136944    
    0.7841276951841476        0.7648194054247738    
    0.7920481769536845        0.7695424667080714    
    0.7999686587232212        0.7740888293866117    
    0.8078891404927581        0.7784569147234434    
    0.8158096222622949        0.7826453009779361    
    0.8237301040318318        0.7866527233935803    
    0.8316505858013686        0.7904780739156024    
    0.8395710675709055        0.7941204006380366    
    0.8474915493404424        0.7975789069812084    
    0.8554120311099791        0.8008529506018754    
    0.8633325128795160        0.8039420420397169    
    0.8712529946490528        0.8068458431049628    
    0.8791734764185897        0.8095641650134859    
    0.8870939581881265        0.8120969662766783    
    0.8950144399576634        0.8144443503548237    
    0.9029349217272002        0.8166065630836935    
    0.9108554034967371        0.8185839898852555    
    0.9187758852662740        0.8203771527743238    
    0.9266963670358107        0.8219867071740025    
    0.9346168488053476        0.8234134385534719    
    0.9425373305748844        0.8246582589025916    
    0.9504578123444213        0.8257222030583147    
    0.9583782941139581        0.8266064248984902    
    0.9662987758834950        0.8273121934191405    
    0.9742192576530319        0.8278408887115303    
    0.9821397394225686        0.8281939978556436    
    0.9900602211921055        0.8283731107467668    
    0.9979807029616423        0.8283799158718798    
     1.005901184731179        0.8282161960524147    
     1.013821666500716        0.8278838241697786    
     1.021742148270253        0.8273847588896014    
     1.029662630039790        0.8267210404002996    
     1.037583111809327        0.8258947861811092    
     1.045503593578863        0.8249081868136635    
     1.053424075348400        0.8237635018511843    
     1.061344557117937        0.8224630557577066    
     1.069265038887474        0.8210092339296694    
     1.077185520657011        0.8194044788105268    
     1.085106002426548        0.8176512861084515    
     1.093026484196084        0.8157522011259989    
     1.100946965965621        0.8137098152094422    
     1.108867447735158        0.8115267623243588    
     1.116787929504695        0.8092057157626321    
     1.124708411274232        0.8067493849854096    
     1.132628893043769        0.8041605126045941    
     1.140549374813306        0.8014418715057888    
     1.148469856582842        0.7985962625790364    
     1.156390338352379        0.7956265108476428    
     1.164310820121916        0.7925354640059930    
     1.172231301891453        0.7893259900497972    
     1.180151783660990        0.7860009749402848    
     1.188072265430527        0.7825633205392875    
     1.195992747200064        0.7790159426648869    
     1.203913228969600        0.7753617692607566    
     1.211833710739137        0.7716037386720204    
     1.219754192508674        0.7677447980186547    
     1.227674674278211        0.7637879016582197    
     1.235595156047748        0.7597360097280611    
     1.243515637817284        0.7555920867572052    
     1.251436119586821        0.7513591003379385    
     1.259356601356358        0.7470400198465020    
     1.267277083125895        0.7426378152023506    
     1.275197564895432        0.7381554556556630    
     1.283118046664969        0.7335959085924743    
     1.291038528434506        0.7289621383470928    
     1.298959010204042        0.7242571050121114    
     1.306879491973579        0.7194837632362181    
     1.314799973743116        0.7146450610006262    
     1.322720455512653        0.7097439383657362    
     1.330640937282190        0.7047833261801549    
     1.338561419051727        0.6997661447445662    
     1.346481900821263        0.6946953024244041    
     1.354402382590800        0.6895736942056094    
     1.362322864360337        0.6844042001887680    
     1.370243346129874        0.6791896840180539    
     1.378163827899411        0.6739329912422531    
     1.386084309668948        0.6686369476060946    
     1.394004791438485        0.6633043572713186    
     1.401925273208021        0.6579380009677858    
     1.409845754977558        0.6525406340763068    
     1.417766236747095        0.6471149846454961    
     1.425686718516632        0.6416637513460998    
     1.433607200286169        0.6361896013676468    
     1.441527682055706        0.6306951682627610    
     1.449448163825243        0.6251830497454388    
     1.457368645594779        0.6196558054509059    
     1.465289127364316        0.6141159546651096    
     1.473209609133853        0.6085659740325445    
     1.481130090903390        0.6030082952523221    
     1.489050572672927        0.5974453027726522    
     1.496971054442463        0.5918793314942521    
     1.504891536212000        0.5863126644942076    
     1.512812017981537        0.5807475307815744    
     1.520732499751074        0.5751861030967759    
     1.528652981520611        0.5696304957666175    
     1.536573463290148        0.5640827626269883    
     1.544493945059685        0.5585448950254999    
     1.552414426829221        0.5530188199156243    
     1.560334908598758        0.5475063980544418    
     1.568255390368295        0.5420094223149724    
     1.576175872137832        0.5365296161243194    
     1.584096353907369        0.5310686320381025    
     1.592016835676906        0.5256280504609644    
     1.599937317446442        0.5202093785223761    
     1.607857799215979        0.5148140491163539    
     1.615778280985516        0.5094434201127330    
     1.623698762755053        0.5040987737466927    
     1.631619244524590        0.4987813161925039    
     1.639539726294127        0.4934921773264329    
     1.647460208063664        0.4882324106824926    
     1.655380689833200        0.4830029936042526    
     1.663301171602737        0.4778048275938869    
     1.671221653372274        0.4726387388596722    
     1.679142135141811        0.4675054790352023    
     1.687062616911348        0.4624057262375301    
     1.694983098680885        0.4573400861794027    
     1.702903580450422        0.4523090924000766    
     1.710824062219958        0.4473132147046560    
     1.718744543989495        0.4423528773600641    
     1.726665025759032        0.4374284748838896    
     1.734585507528569        0.4325403735187053    
     1.742505989298106        0.4276889107912200    
     1.750426471067642        0.4228743969871553    
     1.758346952837179        0.4180971161068122    
     1.766267434606716        0.4133573267769092    
     1.774187916376253        0.4086552631789457    
     1.782108398145790        0.4039911359392218    
     1.790028879915327        0.3993651329936849    
     1.797949361684864        0.3947774204277555    
     1.805869843454400        0.3902281432911855    
     1.813790325223937        0.3857174263887264    
     1.821710806993474        0.3812453750471057    
     1.829631288763011        0.3768120758590734    
     1.837551770532548        0.3724175974049379    
     1.845472252302085        0.3680619909522180    
     1.853392734071621        0.3637452911340200    
     1.861313215841158        0.3594675166066438    
     1.869233697610695        0.3552286706869527    
     1.877154179380232        0.3510287419700345    
     1.885074661149769        0.3468677049277420    
     1.892995142919306        0.3427455204885207    
     1.900915624688843        0.3386621365990638    
     1.908836106458379        0.3346174887683612    
     1.916756588227916        0.3306115005944663    
     1.924677069997453        0.3266440842745554    
     1.932597551766990        0.3227151410987741    
     1.940518033536527        0.3188245619281694    
     1.948438515306064        0.3149722276572820    
     1.956358997075601        0.3111580096617981    
     1.964279478845137        0.3073817702316312    
     1.972199960614674        0.3036433629898790    
     1.980120442384211        0.2999426332980676    
     1.988040924153748        0.2962794186480412    
     1.995961405923285        0.2926535490409017    
     2.003881887692822        0.2890648473533475    
     2.011802369462358        0.2855131296918391    
     2.019722851231895        0.2819982057348490    
     2.027643333001432        0.2785198790635859    
     2.035563814770969        0.2750779474815625    
     2.043484296540506        0.2716722033233069    
     2.051404778310042        0.2683024337525253    
     2.059325260079580        0.2649684210500499    
     2.067245741849116        0.2616699428918637    
     2.075166223618653        0.2584067726174955    
     2.083086705388190        0.2551786794891068    
     2.091007187157727        0.2519854289415114    
     2.098927668927264        0.2488267828234156    
     2.106848150696801        0.2457024996301510    
     2.114768632466337        0.2426123347281554    
     2.122689114235874        0.2395560405714448    
     2.130609596005411        0.2365333669103501    
     2.138530077774948        0.2335440609927496    
     2.146450559544485        0.2305878677579758    
     2.154371041314022        0.2276645300236821    
     2.162291523083558        0.2247737886659019    
     2.170212004853095        0.2219153827924532    
     2.178132486622632        0.2190890499099394    
     2.186052968392169        0.2162945260845325    
     2.193973450161706        0.2135315460967354    
     2.201893931931242        0.2107998435903191    
     2.209814413700780        0.2080991512156124    
     2.217734895470316        0.2054292007673289    
     2.225655377239853        0.2027897233171062    
     2.233575859009390        0.2001804493409182    
     2.241496340778927        0.1976011088415341    
     2.249416822548464        0.1950514314661724    
     2.257337304318001        0.1925311466195126    
     2.265257786087537        0.1900399835722190    
     2.273178267857074        0.1875776715651080    
     2.281098749626611        0.1851439399091094    
     2.289019231396148        0.1827385180811471    
     2.296939713165685        0.1803611358160896    
     2.304860194935221        0.1780115231948896    
     2.312780676704759        0.1756894107290324    
     2.320701158474295        0.1733945294414186    
     2.328621640243832        0.1711266109437931    
     2.336542122013369        0.1688853875108426    
     2.344462603782906        0.1666705921510625    
     2.352383085552443        0.1644819586745104    
     2.360303567321980        0.1623192217575291    
     2.368224049091516        0.1601821170045591    
     2.376144530861053        0.1580703810071303    
     2.384065012630590        0.1559837514001235    
     2.391985494400127        0.1539219669153908    
     2.399905976169664        0.1518847674328281    
     2.407826457939200        0.1498718940289829    
     2.415746939708737        0.1478830890232803    
     2.423667421478274        0.1459180960219441    
     2.431587903247811        0.1439766599596866    
     2.439508385017348        0.1420585271392487    
     2.447428866786885        0.1401634452688661    
     2.455349348556422        0.1382911634977194    
     2.463269830325959        0.1364414324494412    
     2.471190312095495        0.1346140042537464    
     2.479110793865032        0.1328086325762511    
     2.487031275634569        0.1310250726465388    
     2.494951757404106        0.1292630812845350    
     2.502872239173643        0.1275224169252438    
     2.510792720943180        0.1258028396419018    
     2.518713202712716        0.1241041111676153    
     2.526633684482253        0.1224259949155192    
     2.534554166251790        0.1207682559975121    
     2.542474648021327        0.1191306612416193    
     2.550395129790864        0.1175129792080286    
     2.558315611560400        0.1159149802038472    
     2.566236093329938        0.1143364362966223    
     2.574156575099474        0.1127771213266686    
     2.582077056869011        0.1112368109182470    
     2.589997538638548        0.1097152824896292    
     2.597918020408085        0.1082123152620944    
     2.605838502177622        0.1067276902678928    
     2.613758983947159        0.1052611903572126    
     2.621679465716695        0.1038126002041873    
     2.629599947486232        0.1023817063119752    
     2.637520429255769        0.1009682970169494    
     2.645440911025306        0.9957216249202946E-01
     2.653361392794843        0.9819309474918027E-01
     2.661281874564380        0.9683088764111865E-01
     2.669202356333916        0.9548533686225026E-01
     2.677122838103453        0.9415623994886822E-01
     2.685043319872990        0.9284339627864202E-01
     2.692963801642527        0.9154660706942176E-01
     2.700884283412064        0.9026567537738488E-01
     2.708804765181601        0.8900040609455399E-01
     2.716725246951138        0.8775060594570365E-01
     2.724645728720674        0.8651608348468803E-01
     2.732566210490211        0.8529664909020768E-01
     2.740486692259748        0.8409211496103865E-01
     2.748407174029285        0.8290229511074812E-01
     2.756327655798822        0.8172700536191617E-01
     2.764248137568359        0.8056606333988385E-01
     2.772168619337895        0.7941928846604972E-01
     2.780089101107432        0.7828650195073192E-01
     2.788009582876969        0.7716752678561750E-01
     2.795930064646506        0.7606218773581382E-01
     2.803850546416043        0.7497031133152206E-01
     2.811771028185579        0.7389172585935269E-01
     2.819691509955117        0.7282626135329155E-01
     2.827611991724653        0.7177374958534201E-01
     2.835532473494190        0.7073402405585449E-01
     2.843452955263727        0.6970691998355676E-01
     2.851373437033264        0.6869227429530461E-01
     2.859293918802801        0.6768992561556401E-01
     2.867214400572338        0.6669971425563861E-01
     2.875134882341874        0.6572148220265826E-01
     2.883055364111411        0.6475507310833940E-01
     2.890975845880948        0.6380033227753203E-01
     2.898896327650485        0.6285710665656284E-01
     2.906816809420022        0.6192524482138934E-01
     2.914737291189558        0.6100459696557443E-01
     2.922657772959095        0.6009501488809353E-01
     2.930578254728632        0.5919635198098522E-01
     2.938498736498169        0.5830846321685465E-01
     2.946419218267706        0.5743120513624103E-01
     2.954339700037243        0.5656443583485789E-01
     2.962260181806780        0.5570801495071730E-01
     2.970180663576317        0.5486180365114542E-01
     2.978101145345853        0.5402566461969790E-01
     2.986021627115390        0.5319946204298591E-01
     2.993942108884927        0.5238306159741875E-01
     3.001862590654464        0.5157633043587195E-01
     3.009783072424001        0.5077913717428882E-01
     3.017703554193538        0.4999135187822101E-01
     3.025624035963074        0.4921284604931812E-01
     3.033544517732611        0.4844349261177019E-01
     3.041464999502148        0.4768316589871185E-01
     3.049385481271685        0.4693174163859304E-01
     3.057305963041222        0.4618909694152291E-01
     3.065226444810758        0.4545511028559306E-01
     3.073146926580296        0.4472966150318564E-01
     3.081067408349832        0.4401263176727088E-01
     3.088987890119369        0.4330390357769957E-01
     3.096908371888906        0.4260336074749731E-01
     3.104828853658443        0.4191088838916125E-01
     3.112749335427980        0.4122637290096832E-01
     3.120669817197517        0.4054970195329689E-01
     3.128590298967053        0.3988076447496536E-01
     3.136510780736590        0.3921945063959371E-01
     3.144431262506127        0.3856565185199114E-01
     3.152351744275664        0.3791926073457177E-01
     3.160272226045201        0.3728017111380484E-01
     3.168192707814738        0.3664827800670024E-01
     3.176113189584274        0.3602347760733363E-01
     3.184033671353811        0.3540566727341398E-01
     3.191954153123348        0.3479474551289628E-01
     3.199874634892885        0.3419061197064304E-01
     3.207795116662422        0.3359316741513500E-01
     3.215715598431959        0.3300231372523619E-01
     3.223636080201496        0.3241795387701374E-01
     3.231556561971032        0.3183999193061519E-01
     3.239477043740569        0.3126833301720683E-01
     3.247397525510106        0.3070288332597188E-01
     3.255318007279643        0.3014355009117353E-01
     3.263238489049180        0.2959024157928430E-01
     3.271158970818717        0.2904286707617991E-01
     3.279079452588253        0.2850133687440478E-01
     3.286999934357790        0.2796556226050625E-01
     3.294920416127327        0.2743545550244093E-01
     3.302840897896864        0.2691092983705436E-01
     3.310761379666401        0.2639189945763481E-01
     3.318681861435937        0.2587827950154335E-01
     3.326602343205475        0.2536998603792006E-01
     3.334522824975011        0.2486693605546820E-01
     3.342443306744548        0.2436904745031875E-01
     3.350363788514085        0.2387623901397258E-01
     3.358284270283622        0.2338843042132587E-01
     3.366204752053159        0.2290554221877565E-01
     3.374125233822696        0.2242749581240914E-01
     3.382045715592232        0.2195421345627582E-01
     3.389966197361769        0.2148561824074404E-01
     3.397886679131306        0.2102163408094307E-01
     3.405807160900843        0.2056218570528965E-01
     3.413727642670380        0.2010719864410216E-01
     3.421648124439916        0.1965659921830106E-01
     3.429568606209453        0.1921031452819688E-01
     3.437489087978990        0.1876827244236682E-01
     3.445409569748527        0.1833040158661928E-01
     3.453330051518064        0.1789663133304895E-01
     3.461250533287601        0.1746689178917961E-01
     3.469171015057138        0.1704111378719928E-01
     3.477091496826675        0.1661922887328500E-01
     3.485011978596211        0.1620116929701832E-01
     3.492932460365748        0.1578686800089357E-01
     3.500852942135285        0.1537625860991659E-01
     3.508773423904822        0.1496927542129710E-01
     3.516693905674359        0.1456585339423273E-01
     3.524614387443896        0.1416592813978648E-01
     3.532534869213432        0.1376943591085779E-01
     3.540455350982969        0.1337631359224630E-01
     3.548375832752506        0.1298649869081052E-01
     3.556296314522043        0.1259992932571904E-01
     3.564216796291580        0.1221654421879806E-01
     3.572137278061116        0.1183628268497085E-01
     3.580057759830654        0.1145908462279463E-01
     3.587978241600190        0.1108489050674022E-01
     3.595898723369727        0.1071364147222753E-01
     3.603819205139264        0.1034528045491395E-01
     3.611739686908801        0.9979757235001175E-02
     3.619660168678338        0.9617039488468178E-02
     3.627580650447875        0.9257127724869666E-02
     3.635501132217411        0.8900069508679510E-02
     3.643421613986948        0.8545969365194547E-02
     3.651342095756485        0.8194993028484174E-02
     3.659262577526022        0.7847366416650918E-02
     3.667183059295559        0.7503370539964306E-02
     3.675103541065096        0.7163333715263373E-02
     3.683024022834632        0.6827622298657917E-02
     3.690944504604169        0.6496630874687738E-02
     3.698864986373706        0.6170772563910307E-02
     3.706785468143243        0.5850469881985443E-02
     3.714705949912780        0.5536146406138164E-02
     3.722626431682317        0.5228219384611958E-02
     3.730546913451854        0.4927093331444255E-02
     3.738467395221390        0.4633154587395880E-02
     3.746387876990927        0.4346766823847623E-02
     3.754308358760464        0.4068267391056075E-02
     3.762228840530001        0.3797964454910612E-02
     3.770149322299538        0.3536134837072327E-02
     3.778069804069075        0.3283022478031067E-02
     3.785990285838611        0.3038837446200528E-02
     3.793910767608148        0.2803755420805492E-02
     3.801831249377685        0.2577917581861247E-02
     3.809751731147222        0.2361430845475730E-02
     3.817672212916759        0.2154368387500551E-02
     3.825592694686295        0.1956770402656185E-02
     3.833513176455833        0.1768645049659673E-02
     3.841433658225369        0.1589969534901570E-02
     3.849354139994906        0.1420691287432860E-02
     3.857274621764443        0.1260729175508602E-02
     3.865195103533980        0.1109974708216298E-02
     3.873115585303517        0.9682931519649133E-03
     3.881036067073054        0.8355244655233561E-03
     3.888956548842590        0.7114839082436897E-03
     3.896877030612127        0.5959620816629155E-03
     3.904797512381664        0.4887239740932093E-03
     3.912717994151201        0.3895061661892410E-03
     3.920638475920738        0.2980103807345783E-03
     3.928558957690274        0.2138889437946068E-03
     3.936479439459811        0.1367093307966016E-03
     3.944399921229348        0.6584927151828244E-04
     3.952320402998885         0.000000000000000    
  0  5  1  0  1.000000   #orbital l, n, z, is_polarized, population
 500    0.2217744498799005E-01     11.06654504900703     # npts, delta, cutoff
     0.000000000000000        0.4050450322895664E-01
    0.2217744498799005E-01    0.4081302985747871E-01
    0.4435488997598010E-01    0.4173789204743133E-01
    0.6653233496397015E-01    0.4327091092219101E-01
    0.8870977995196019E-01    0.4539961076549763E-01
    0.1108872249399502        0.4810681745464401E-01
    0.1330646699279403        0.5137092588673823E-01
    0.1552421149159303        0.5516621553179023E-01
    0.1774195599039204        0.5946320079502931E-01
    0.1995970048919104        0.6422900463514895E-01