<preamble>

<basis_specs>
===============================================================================
Rn                   Z=  86    Mass=  222.02        Charge= 0.17977+309
Lmxo=2 Lmxkb= 3    BasisType=split      Semic=T
L=0  Nsemic=0  Cnfigmx=6
          i=1  nzeta=2  polorb=0  (6s)
            splnorm:   0.15000    
               vcte:    40.000    
               rinn:    4.2221    
               qcoe:    0.0000    
               qyuk:    0.0000    
               qwid:   0.10000E-01
                rcs:    4.6866      3.2276    
            lambdas:    1.0000      1.0000    
L=1  Nsemic=0  Cnfigmx=6
          i=1  nzeta=2  polorb=0  (6p)  (to be polarized non-perturbatively)
            splnorm:   0.15000    
               vcte:    40.000    
               rinn:    5.6287    
               qcoe:    0.0000    
               qyuk:    0.0000    
               qwid:   0.10000E-01
                rcs:    6.2541      4.3778    
            lambdas:    1.0000      1.0000    
L=2  Nsemic=1  Cnfigmx=6
          i=1  nzeta=1  polorb=0  (5d)  (semicore shell)
            splnorm:   0.15000    
               vcte:    40.000    
               rinn:    2.8102    
               qcoe:    0.0000    
               qyuk:    0.0000    
               qwid:   0.10000E-01
                rcs:    3.1194    
            lambdas:    1.0000    
          i=2  nzeta=1  polorb=0  (6d)  (non-perturbative polarization shell)
            splnorm:   0.15000    
               vcte:    40.000    
               rinn:    5.6343    
               qcoe:    0.0000    
               qyuk:    0.0000    
               qwid:   0.10000E-01
                rcs:    6.2541    
            lambdas:    1.0000    
-------------------------------------------------------------------------------
L=0  Nkbl=1  erefs: 0.17977+309
L=1  Nkbl=1  erefs: 0.17977+309
L=2  Nkbl=2  erefs: 0.17977+309 0.17977+309
L=3  Nkbl=1  erefs: 0.17977+309
===============================================================================
</basis_specs>

<pseudopotential_header>
 Rn pb nrl pcec
 ONCVPSP-4.2023-03-20Hamann's oncvpsp                        
 6s 2.00  r= 2.21/6p 6.00  r= 2.01/5d10.00  r= 1.81/5f 0.00  r= 2.01/   5d:6s:6p:
</pseudopotential_header>
</preamble>
Rn                            # Symbol
Rn                            # Label
   86                         # Atomic number
     18.0000000000                             # Valence charge
     222.020000000        # Mass 
     284.569438475        # Self energy 
   2   6                      # Lmax for basis, no. of nl orbitals 
   3   9                      # Lmax for projectors, no. of nl KB projectors
# PAOs:__________________________
  0  6  1  0  2.000000   #orbital l, n, z, is_polarized, population
 500    0.9391898990301090E-02     4.686557596160244     # npts, delta, cutoff
     0.000000000000000        0.2148253711263717    
    0.9391898990301090E-02    0.2148758474402345    
    0.1878379798060218E-01    0.2150465140146133    
    0.2817569697090327E-01    0.2153307457577139    
    0.3756759596120436E-01    0.2157282157672328    
    0.4695949495150545E-01    0.2162384694212591    
    0.5635139394180654E-01    0.2168609242136099    
    0.6574329293210764E-01    0.2175948708445393    
    0.7513519192240872E-01    0.2184394747053978    
    0.8452709091270981E-01    0.2193937776576077    
    0.9391898990301090E-01    0.2204567000817919    
    0.1033108888933120        0.2216270431860330    
    0.1127027878836131        0.2229034915649766    
    0.1220946868739142        0.2242846160018626    
    0.1314865858642153        0.2257688765052632    
    0.1408784848545163        0.2273546255718139    
    0.1502703838448174        0.2290401116656497    
    0.1596622828351185        0.2308234829047035    
    0.1690541818254196        0.2327027909434612    
    0.1784460808157207        0.2346759950412404    
    0.1878379798060218        0.2367409663045652    
    0.1972298787963229        0.2388954920917360    
    0.2066217777866240        0.2411372805672701    
    0.2160136767769251        0.2434639653934870    
    0.2254055757672262        0.2458731105461660    
    0.2347974747575273        0.2483622152408839    
    0.2441893737478283        0.2509287189563630    
    0.2535812727381294        0.2535700065409359    
    0.2629731717284305        0.2562834133880330    
    0.2723650707187316        0.2590662306664554    
    0.2817569697090327        0.2619157105910961    
    0.2911488686993338        0.2648290717196981    
    0.3005407676896349        0.2678035042612352    
    0.3099326666799360        0.2708361753815158    
    0.3193245656702371        0.2739242344916902    
    0.3287164646605382        0.2770648185054411    
    0.3381083636508392        0.2802550570508042    
    0.3475002626411404        0.2834920776227602    
    0.3568921616314414        0.2867730106629737    
    0.3662840606217425        0.2900949945533388    
    0.3756759596120436        0.2934551805103135    
    0.3850678586023447        0.2968507373673723    
    0.3944597575926458        0.3002788562333176    
    0.4038516565829469        0.3037367550146081    
    0.4132435555732480        0.3072216827903382    
    0.4226354545635491        0.3107309240289993    
    0.4320273535538501        0.3142618026366854    
    0.4414192525441513        0.3178116858269688    
    0.4508111515344523        0.3213779878032603    
    0.4602030505247534        0.3249581732450835    
    0.4695949495150545        0.3285497605903373    
    0.4789868485053556        0.3321503251062795    
    0.4883787474956567        0.3357575017426440    
    0.4977706464859578        0.3393689877610190    
    0.5071625454762588        0.3429825451353090    
    0.5165544444665600        0.3465960027188546    
    0.5259463434568611        0.3502072581745057    
    0.5353382424471621        0.3538142796647102    
    0.5447301414374632        0.3574151072994257    
    0.5541220404277644        0.3610078543404228    
    0.5635139394180654        0.3645907081613212    
    0.5729058384083665        0.3681619309634386    
    0.5822977373986676        0.3717198602483192    
    0.5916896363889687        0.3752629090485315    
    0.6010815353792698        0.3787895659190947    
    0.6104734343695709        0.3822983946926105    
    0.6198653333598719        0.3857880340018999    
    0.6292572323501731        0.3892571965746647    
    0.6386491313404742        0.3927046683053719    
    0.6480410303307752        0.3961293071102211    
    0.6574329293210763        0.3995300415717336    
    0.6668248283113775        0.4029058693800956    
    0.6762167273016785        0.4062558555790087    
    0.6856086262919796        0.4095791306243785    
    0.6950005252822807        0.4128748882646949    
    0.7043924242725818        0.4161423832524993    
    0.7137843232628829        0.4193809288968035    
    0.7231762222531840        0.4225898944667811    
    0.7325681212434850        0.4257687024574524    
    0.7419600202337862        0.4289168257284980    
    0.7513519192240872        0.4320337845276339    
    0.7607438182143883        0.4351191434103226    
    0.7701357172046894        0.4381725080678455    
    0.7795276161949904        0.4411935220759830    
    0.7889195151852916        0.4441818635767451    
    0.7983114141755927        0.4471372419057401    
    0.8077033131658937        0.4500593941778585    
    0.8170952121561949        0.4529480818440412    
    0.8264871111464960        0.4558030872318835    
    0.8358790101367970        0.4586242100828521    
    0.8452709091270981        0.4614112640987839    
    0.8546628081173993        0.4641640735102819    
    0.8640547071077003        0.4668824696794422    
    0.8734466060980014        0.4695662877491854    
    0.8828385050883025        0.4722153633512374    
    0.8922304040786035        0.4748295293845535    
    0.9016223030689047        0.4774086128756815    
    0.9110142020592058        0.4799524319321934    
    0.9204061010495068        0.4824607928000441    
    0.9297980000398079        0.4849334870351472    
    0.9391898990301091        0.4873702887992523    
    0.9485817980204101        0.4897709522894614    
    0.9579736970107112        0.4921352093105544    
    0.9673655960010124        0.4944627669984333    
    0.9767574949913134        0.4967533057027352    
    0.9861493939816145        0.4990064770359007    
    0.9955412929719156        0.5012219020954876    
     1.004933191962217        0.5033991698658556    
     1.014325090952518        0.5055378358047835    
     1.023716989942819        0.5076374206197586    
     1.033108888933120        0.5096974092383696    
     1.042500787923421        0.5117172499760523    
     1.051892686913722        0.5136963539042002    
     1.061284585904023        0.5156340944208615    
     1.070676484894324        0.5175298070252138    
     1.080068383884625        0.5193827892967914    
     1.089460282874926        0.5211923010795748    
     1.098852181865227        0.5229575648699419    
     1.108244080855529        0.5246777664076349    
     1.117635979845830        0.5263520554673051    
     1.127027878836131        0.5279795468481161    
     1.136419777826432        0.5295593215581051    
     1.145811676816733        0.5310904281889886    
     1.155203575807034        0.5325718844770693    
     1.164595474797335        0.5340026790448281    
     1.173987373787636        0.5353817733170472    
     1.183379272777937        0.5367081036054385    
     1.192771171768239        0.5379805833543375    
     1.202163070758540        0.5391981055400552    
     1.211554969748841        0.5403595452157481    
     1.220946868739142        0.5414637621931386    
     1.230338767729443        0.5425096038523058    
     1.239730666719744        0.5434959080695475    
     1.249122565710045        0.5444215062542255    
     1.258514464700346        0.5452852264834821    
     1.267906363690647        0.5460858967250121    
     1.277298262680948        0.5468223481367809    
     1.286690161671249        0.5474934184322502    
     1.296082060661550        0.5480979553005405    
     1.305473959651852        0.5486348198692640    
     1.314865858642153        0.5491028901988830    
     1.324257757632454        0.5495010647966762    
     1.333649656622755        0.5498282661384208    
     1.343041555613056        0.5500834441861117    
     1.352433454603357        0.5502655798898199    
     1.361825353593658        0.5503736886617380    
     1.371217252583959        0.5504068238109739    
     1.380609151574260        0.5503640799273795    
     1.390001050564561        0.5502445962028957    
     1.399392949554862        0.5500475596794820    
     1.408784848545164        0.5497722084122615    
     1.418176747535465        0.5494178345375327    
     1.427568646525766        0.5489837872349057    
     1.436960545516067        0.5484694755737981    
     1.446352444506368        0.5478743712343077    
     1.455744343496669        0.5471980110932907    
     1.465136242486970        0.5464399996666931    
     1.474528141477271        0.5456000113997658    
     1.483920040467572        0.5446777927972243    
     1.493311939457873        0.5436731643857838    
     1.502703838448174        0.5425860225022814    
     1.512095737438476        0.5414163409010414    
     1.521487636428777        0.5401641721745331    
     1.530879535419078        0.5388296489823220    
     1.540271434409379        0.5374129850835025    
     1.549663333399680        0.5359144761689099    
     1.559055232389981        0.5343345008016270    
     1.568447131380282        0.5326735633701455    
     1.577839030370583        0.5309321774644574    
     1.587230929360884        0.5291109573956029    
     1.596622828351185        0.5272106137836774    
     1.606014727341486        0.5252319398223525    
     1.615406626331787        0.5231758106506157    
     1.624798525322089        0.5210431825154477    
     1.634190424312390        0.5188350917273439    
     1.643582323302691        0.5165526534112123    
     1.652974222292992        0.5141970600555826    
     1.662366121283293        0.5117695798639932    
     1.671758020273594        0.5092715549129925    
     1.681149919263895        0.5067043991215514    
     1.690541818254196        0.5040695960374182    
     1.699933717244497        0.5013686964466081    
     1.709325616234799        0.4986033158125579    
     1.718717515225100        0.4957751315520704    
     1.728109414215401        0.4928858801558112    
     1.737501313205702        0.4899373541611250    
     1.746893212196003        0.4869313989859123    
     1.756285111186304        0.4838699096327568    
     1.765677010176605        0.4807548272722582    
     1.775068909166906        0.4775881357151220    
     1.784460808157207        0.4743718577836120    
     1.793852707147508        0.4711080515919981    
     1.803244606137809        0.4677988067411611    
     1.812636505128110        0.4644462404609935    
     1.822028404118412        0.4610524936957130    
     1.831420303108713        0.4576197270896145    
     1.840812202099014        0.4541501169921300    
     1.850204101089315        0.4506458514408669    
     1.859596000079616        0.4471091260954000    
     1.868987899069917        0.4435421401918261    
     1.878379798060218        0.4399470925001090    
     1.887771697050519        0.4363261773034363    
     1.897163596040820        0.4326815804092738    
     1.906555495031121        0.4290154752034502    
     1.915947394021422        0.4253300187581130    
     1.925339293011723        0.4216273480042091    
     1.934731192002025        0.4179095759793611    
     1.944123090992326        0.4141787881609667    
     1.953514989982627        0.4104370388945789    
     1.962906888972928        0.4066863479272889    
     1.972298787963229        0.4029286970553906    
     1.981690686953530        0.3991660268957047    
     1.991082585943831        0.3954002337867935    
     2.000474484934132        0.3916331668313287    
     2.009866383924433        0.3878666250831825    
     2.019258282914735        0.3841023548994498    
     2.028650181905035        0.3803420474562675    
     2.038042080895337        0.3765873363915628    
     2.047433979885638        0.3728397956631852    
     2.056825878875939        0.3691009375701861    
     2.066217777866240        0.3653722109833590    
     2.075609676856541        0.3616549997083520    
     2.085001575846842        0.3579506210816085    
     2.094393474837143        0.3542603247460707    
     2.103785373827444        0.3505852916193640    
     2.113177272817745        0.3469266330621003    
     2.122569171808046        0.3432853902422455    
     2.131961070798348        0.3396625336977581    
     2.141352969788648        0.3360589630968158    
     2.150744868778950        0.3324755071950974    
     2.160136767769251        0.3289129239885483    
     2.169528666759552        0.3253719010598096    
     2.178920565749853        0.3218530561091075    
     2.188312464740154        0.3183569376348800    
     2.197704363730455        0.3148840262423999    
     2.207096262720756        0.3114347349012709    
     2.216488161711057        0.3080094096557077    
     2.225880060701358        0.3046083420793781    
     2.235271959691659        0.3012317892366580    
     2.244663858681961        0.2978799890684135    
     2.254055757672262        0.2945531620343079    
     2.263447656662563        0.2912515100010584    
     2.272839555652864        0.2879752174065875    
     2.282231454643165        0.2847244519107140    
     2.291623353633466        0.2814993649691100    
     2.301015252623767        0.2783000924237876    
     2.310407151614068        0.2751267550784321    
     2.319799050604369        0.2719794592535302    
     2.329190949594671        0.2688582973261158    
     2.338582848584971        0.2657633482533545    
     2.347974747575273        0.2626946780804090    
     2.357366646565574        0.2596523404330894    
     2.366758545555875        0.2566363769956613    
     2.376150444546176        0.2536468179741982    
     2.385542343536477        0.2506836825458519    
     2.394934242526778        0.2477469792943985    
     2.404326141517079        0.2448367066324645    
     2.413718040507380        0.2419528532107768    
     2.423109939497681        0.2390953983147401    
     2.432501838487982        0.2362643122487358    
     2.441893737478284        0.2334595567084511    
     2.451285636468584        0.2306810851415608    
     2.460677535458886        0.2279288430970736    
     2.470069434449187        0.2252027685636741    
     2.479461333439488        0.2225027922973440    
     2.488853232429789        0.2198288381385577    
     2.498245131420090        0.2171808233193494    
     2.507637030410391        0.2145586587605319    
     2.517028929400692        0.2119622493593332    
     2.526420828390993        0.2093914942677017    
     2.535812727381294        0.2068462871615865    
     2.545204626371596        0.2043265165014300    
     2.554596525361897        0.2018320657840865    
     2.563988424352198        0.1993628137864502    
     2.573380323342499        0.1969186348010135    
     2.582772222332800        0.1944993988635804    
     2.592164121323101        0.1921049719733701    
     2.601556020313402        0.1897352163057276    
     2.610947919303703        0.1873899904176516    
     2.620339818294004        0.1850691494463413    
     2.629731717284305        0.1827725453009695    
     2.639123616274607        0.1805000268478823    
     2.648515515264907        0.1782514400894252    
     2.657907414255209        0.1760266283365574    
     2.667299313245510        0.1738254323754577    
     2.676691212235811        0.1716476906282995    
     2.686083111226112        0.1694932393083552    
     2.695475010216413        0.1673619125695975    
     2.704866909206714        0.1652535426509815    
     2.714258808197015        0.1631679600155558    
     2.723650707187316        0.1611049934845397    
     2.733042606177617        0.1590644703665337    
     2.742434505167918        0.1570462165820304    
     2.751826404158220        0.1550500567833358    
     2.761218303148520        0.1530758144700465    
     2.770610202138822        0.1511233121002336    
     2.780002101129123        0.1491923711974466    
     2.789394000119424        0.1472828124536847    
     2.798785899109725        0.1453944558284440    
     2.808177798100026        0.1435271206439633    
     2.817569697090327        0.1416806256767939    
     2.826961596080628        0.1398547892458054    
     2.836353495070929        0.1380494292967387    
     2.845745394061230        0.1362643634834040    
     2.855137293051532        0.1344994092456475    
     2.864529192041833        0.1327543838841730    
     2.873921091032134        0.1310291046323326    
     2.883312990022435        0.1293233887249707    
     2.892704889012736        0.1276370534644167    
     2.902096788003037        0.1259699162837226    
     2.911488686993338        0.1243217948072303    
     2.920880585983639        0.1226925069085586    
     2.930272484973940        0.1210818707660943    
     2.939664383964241        0.1194897049160584    
     2.949056282954543        0.1179158283032335    
     2.958448181944843        0.1163600603294346    
     2.967840080935145        0.1148222208997921    
     2.977231979925446        0.1133021304669173    
     2.986623878915747        0.1117996100730180    
     2.996015777906048        0.1103144813900402    
     3.005407676896349        0.1088465667578989    
     3.014799575886650        0.1073956892208635    
     3.024191474876951        0.1059616725621630    
     3.033583373867252        0.1045443413368551    
     3.042975272857553        0.1031435209030388    
     3.052367171847854        0.1017590374514550    
     3.061759070838155        0.1003907180335357    
     3.071150969828456        0.9903839058795377E-01
     3.080542868818758        0.9770188396572520E-01
     3.089934767809059        0.9638102795391129E-01
     3.099326666799360        0.9507565329797549E-01
     3.108718565789661        0.9378559172283972E-01
     3.118110464779962        0.9251067595268463E-01
     3.127502363770263        0.9125073972954126E-01
     3.136894262760564        0.9000561783071397E-01
     3.146286161750865        0.8877514608508075E-01
     3.155678060741166        0.8755916138830544E-01
     3.165069959731468        0.8635750171700926E-01
     3.174461858721768        0.8517000614193344E-01
     3.183853757712070        0.8399651484013421E-01
     3.193245656702371        0.8283686910624112E-01
     3.202637555692672        0.8169091136281660E-01
     3.212029454682973        0.8055848516984941E-01
     3.221421353673274        0.7943943523341751E-01
     3.230813252663575        0.7833360741354781E-01
     3.240205151653876        0.7724084873130678E-01
     3.249597050644177        0.7616100737514589E-01
     3.258988949634478        0.7509393270653521E-01
     3.268380848624779        0.7403947526491210E-01
     3.277772747615081        0.7299748677197331E-01
     3.287164646605381        0.7196782013533330E-01
     3.296556545595683        0.7095032945157327E-01
     3.305948444585984        0.6994487000870772E-01
     3.315340343576285        0.6895129828809259E-01
     3.324732242566586        0.6796947196579452E-01
     3.334124141556887        0.6699924991344577E-01
     3.343516040547188        0.6604049219860490E-01
     3.352907939537489        0.6509306008464162E-01
     3.362299838527790        0.6415681603016950E-01
     3.371691737518091        0.6323162368804497E-01
     3.381083636508392        0.6231734790394624E-01
     3.390475535498694        0.6141385471455806E-01
     3.399867434488995        0.6052101134537220E-01
     3.409259333479296        0.5963868620812329E-01
     3.418651232469597        0.5876674889787574E-01
     3.428043131459898        0.5790507018977915E-01
     3.437435030450199        0.5705352203550283E-01
     3.446826929440500        0.5621197755936797E-01
     3.456218828430801        0.5538031105418998E-01
     3.465610727421102        0.5455839797684196E-01
     3.475002626411404        0.5374611494355726E-01
     3.484394525401704        0.5294333972497835E-01
     3.493786424392006        0.5214995124096784E-01
     3.503178323382307        0.5136582955519091E-01
     3.512570222372608        0.5059085586948189E-01
     3.521962121362909        0.4982491251800412E-01
     3.531354020353210        0.4906788296121503E-01
     3.540745919343511        0.4831965177964549E-01
     3.550137818333812        0.4758010466750345E-01
     3.559529717324113        0.4684912842611049E-01
     3.568921616314414        0.4612661095718078E-01
     3.578313515304715        0.4541244125595102E-01
     3.587705414295017        0.4470650940416905E-01
     3.597097313285317        0.4400870656295025E-01
     3.606489212275619        0.4331892496550715E-01
     3.615881111265920        0.4263705790976252E-01
     3.625273010256221        0.4196299975085237E-01
     3.634664909246522        0.4129664589352210E-01
     3.644056808236823        0.4063789278442922E-01
     3.653448707227124        0.3998663790435105E-01
     3.662840606217425        0.3934277976027304E-01
     3.672232505207726        0.3870621787728692E-01
     3.681624404198027        0.3807685279100582E-01
     3.691016303188329        0.3745458604000507E-01
     3.700408202178630        0.3683932015609929E-01
     3.709800101168931        0.3623095865437541E-01
     3.719192000159232        0.3562940602965230E-01
     3.728583899149533        0.3503456774824545E-01
     3.737975798139834        0.3444635023631785E-01
     3.747367697130135        0.3386466086911556E-01
     3.756759596120436        0.3328940796775542E-01
     3.766151495110737        0.3272050078907394E-01
     3.775543394101038        0.3215784951689480E-01
     3.784935293091340        0.3160136525338618E-01
     3.794327192081640        0.3105096001047562E-01
     3.803719091071942        0.3050654670134831E-01
     3.813110990062243        0.2996803913192171E-01
     3.822502889052544        0.2943535199222267E-01
     3.831894788042845        0.2890840084775202E-01
     3.841286687033146        0.2838710213086594E-01
     3.850678586023447        0.2787137313215442E-01
     3.860070485013748        0.2736113199181343E-01
     3.869462384004049        0.2685629769101922E-01
     3.878854282994350        0.2635679004330402E-01
     3.888246181984651        0.2586252968593688E-01
     3.897638080974953        0.2537343807131279E-01
     3.907029979965253        0.2488943745834970E-01
     3.916421878955555        0.2441045090389730E-01
     3.925813777945856        0.2393640225415889E-01
     3.935205676936157        0.2346721613612726E-01
     3.944597575926458        0.2300281794903864E-01
     3.953989474916759        0.2254313385584249E-01
     3.963381373907060        0.2208809077469261E-01
     3.972773272897361        0.2163761637045824E-01
     3.982165171887663        0.2119163904625841E-01
     3.991557070877963        0.2075008793502019E-01
     4.000948969868264        0.2031289289106122E-01
     4.010340868858566        0.1987998448169925E-01
     4.019732767848867        0.1945129397888833E-01
     4.029124666839167        0.1902675335088390E-01
     4.038516565829469        0.1860629525393861E-01
     4.047908464819770        0.1818985302402711E-01
     4.057300363810071        0.1777736066860294E-01
     4.066692262800372        0.1736875285838722E-01
     4.076084161790673        0.1696396491919183E-01
     4.085476060780974        0.1656293282377531E-01
     4.094867959771276        0.1616559318373432E-01
     4.104259858761576        0.1577188324143064E-01
     4.113651757751877        0.1538174086195304E-01
     4.123043656742179        0.1499510452511722E-01
     4.132435555732480        0.1461191331750264E-01
     4.141827454722780        0.1423210692452663E-01
     4.151219353713082        0.1385562562255744E-01
     4.160611252703383        0.1348241027106653E-01
     4.170003151693684        0.1311240230481877E-01
     4.179395050683985        0.1274554372610345E-01
     4.188786949674286        0.1238177709700512E-01
     4.198178848664587        0.1202104553171403E-01
     4.207570747654889        0.1166329268887819E-01
     4.216962646645189        0.1130846276399585E-01
     4.226354545635490        0.1095650048184944E-01
     4.235746444625792        0.1060735108898026E-01
     4.245138343616093        0.1026096034620647E-01
     4.254530242606394        0.9917274522933350E-02
     4.263922141596695        0.9576240489819759E-02
     4.273314040586996        0.9237806928467098E-02
     4.282705939577297        0.8901929670922614E-02
     4.292097838567599        0.8568583369012844E-02
     4.301489737557899        0.8237777212640405E-02
     4.310881636548200        0.7909569804474733E-02
     4.320273535538502        0.7584079387806040E-02
     4.329665434528803        0.7261488030110708E-02
     4.339057333519103        0.6942040198499292E-02
     4.348449232509405        0.6626037029003185E-02
     4.357841131499706        0.6313827763909555E-02
     4.367233030490007        0.6005799654310483E-02
     4.376624929480308        0.5702367330024339E-02
     4.386016828470609        0.5403962344763610E-02
     4.395408727460910        0.5111023358063928E-02
     4.404800626451212        0.4823987227449944E-02
     4.414192525441512        0.4543281149173601E-02
     4.423584424431813        0.4269315893205605E-02
     4.432976323422115        0.4002480117414516E-02
     4.442368222412416        0.3743135708056127E-02
     4.451760121402716        0.3491614071868774E-02
     4.461152020393018        0.3248213294057913E-02
     4.470543919383319        0.3013196072576203E-02
     4.479935818373620        0.2786788339765513E-02
     4.489327717363921        0.2569178485849595E-02
     4.498719616354222        0.2360517103719136E-02
     4.508111515344523        0.2160917180128388E-02
     4.517503414334825        0.1970454664245149E-02
     4.526895313325126        0.1789169350081258E-02
     4.536287212315426        0.1617066014362806E-02
     4.545679111305728        0.1454115755609148E-02
     4.555071010296029        0.1300257483240843E-02
     4.564462909286330        0.1155399506973311E-02
     4.573854808276631        0.1019421175817643E-02
     4.583246707266932        0.8921745113981721E-03
     4.592638606257233        0.7734857696171071E-03
     4.602030505247535        0.6631568433897910E-03
     4.611422404237835        0.5609663781082514E-03
     4.620814303228136        0.4666703913137139E-03
     4.630206202218438        0.3800020248701451E-03
     4.639598101208739        0.3006697033430676E-03
     4.648990000199039        0.2283521285803771E-03
     4.658381899189341        0.1626862663561229E-03
     4.667773798179642        0.1032371537013283E-03
     4.677165697169943        0.4940705354519817E-04
     4.686557596160244         0.000000000000000    
  0  6  2  0  0.000000   #orbital l, n, z, is_polarized, population
 500    0.6468120048441740E-02     3.227591904172428     # npts, delta, cutoff
     0.000000000000000       -0.1107257827633041    
    0.6468120048441740E-02   -0.1106816862277891    
    0.1293624009688348E-01   -0.1105095319811665    
    0.1940436014532522E-01   -0.1102226955614028    
    0.2587248019376696E-01   -0.1098213335977933    
    0.3234060024220870E-01   -0.1093056589721107    
    0.3880872029065044E-01   -0.1086759440363520    
    0.4527684033909218E-01   -0.1079325208251824    
    0.5174496038753392E-01   -0.1070757808393399    