<preamble>

<basis_specs>
===============================================================================
S                    Z=  16    Mass=  32.060        Charge= 0.17977+309
Lmxo=2 Lmxkb= 2    BasisType=split      Semic=F
L=0  Nsemic=0  Cnfigmx=3
          i=1  nzeta=2  polorb=0  (3s)
            splnorm:   0.15000    
               vcte:    40.000    
               rinn:    4.2348    
               qcoe:    0.0000    
               qyuk:    0.0000    
               qwid:   0.10000E-01
                rcs:    4.7054      3.1508    
            lambdas:    1.0000      1.0000    
L=1  Nsemic=0  Cnfigmx=3
          i=1  nzeta=2  polorb=1  (3p)  (to be polarized perturbatively)
            splnorm:   0.15000    
               vcte:    40.000    
               rinn:    5.3004    
               qcoe:    0.0000    
               qyuk:    0.0000    
               qwid:   0.10000E-01
                rcs:    5.8893      3.9841    
            lambdas:    1.0000      1.0000    
L=2  Nsemic=0  Cnfigmx=3
          i=1  nzeta=0  polorb=0  (3d)  (perturbative polarization orbital) (from 3p)
-------------------------------------------------------------------------------
L=0  Nkbl=1  erefs: 0.17977+309
L=1  Nkbl=1  erefs: 0.17977+309
L=2  Nkbl=1  erefs: 0.17977+309
===============================================================================
</basis_specs>

<pseudopotential_header>
 S  pb nrl pcec
 ONCVPSP-4.2023-03-20Hamann's oncvpsp                        
 3s 2.00  r= 1.46/3p 4.00  r= 1.46/3d 0.00  r= 1.46/                    3s:3p:
</pseudopotential_header>
</preamble>
S                             # Symbol
S                             # Label
   16                         # Atomic number
     6.00000000000                             # Valence charge
     32.0600000000        # Mass 
     39.6762515248        # Self energy 
   2   5                      # Lmax for basis, no. of nl orbitals 
   2   6                      # Lmax for projectors, no. of nl KB projectors
# PAOs:__________________________
  0  3  1  0  2.000000   #orbital l, n, z, is_polarized, population
 500    0.9429622142589987E-02     4.705381449152403     # npts, delta, cutoff
     0.000000000000000        0.8593216513705358E-01
    0.9429622142589987E-02    0.8606689743891362E-01
    0.1885924428517997E-01    0.8647350593123747E-01
    0.2828886642776996E-01    0.8715064645109417E-01
    0.3771848857035995E-01    0.8809750936452757E-01
    0.4714811071294994E-01    0.8931296534015563E-01
    0.5657773285553992E-01    0.9079556903113083E-01
    0.6600735499812990E-01    0.9254356391361873E-01
    0.7543697714071990E-01    0.9455488811748641E-01
    0.8486659928330989E-01    0.9682718117648040E-01
    0.9429622142589987E-01    0.9935779162650395E-01
    0.1037258435684899        0.1021437853746451    
    0.1131554657110798        0.1051819547553671    
    0.1225850878536698        0.1084688281849140    
    0.1320147099962598        0.1120006803207920    
    0.1414443321388498        0.1157735426302871    
    0.1508739542814398        0.1197832142704181    
    0.1603035764240298        0.1240252731815240    
    0.1697331985666198        0.1284950872978325    
    0.1791628207092097        0.1331878257808530    
    0.1885924428517997        0.1380984701851866    
    0.1980220649943897        0.1432218254713628    
    0.2074516871369797        0.1485525307863971    
    0.2168813092795697        0.1540850699399555    
    0.2263109314221597        0.1598137815120610    
    0.2357405535647497        0.1657328685371507    
    0.2451701757073397        0.1718364077187912    
    0.2545997978499296        0.1781183581393778    
    0.2640294199925196        0.1845725694394678    
    0.2734590421351096        0.1911927894519266    
    0.2828886642776996        0.1979726712865802    
    0.2923182864202896        0.2049057798714743    
    0.3017479085628796        0.2119855979668537    
    0.3111775307054696        0.2192055316776260    
    0.3206071528480596        0.2265589154990137    
    0.3300367749906495        0.2340390169383508    
    0.3394663971332396        0.2416390407633310    
    0.3488960192758295        0.2493521329333809    
    0.3583256414184195        0.2571713842761332    
    0.3677552635610095        0.2650898339751011    
    0.3771848857035995        0.2731004729375840    
    0.3866145078461894        0.2811962471135084    
    0.3960441299887795        0.2893700608362992    
    0.4054737521313694        0.2976147802560144    
    0.4149033742739594        0.3059232369328480    
    0.4243329964165494        0.3142882316557873    
    0.4337626185591394        0.3227025385467236    
    0.4431922407017294        0.3311589095047731    
    0.4526218628443194        0.3396500790390296    
    0.4620514849869093        0.3481687695305918    
    0.4714811071294994        0.3567076969565378    
    0.4809107292720893        0.3652595770997846    
    0.4903403514146794        0.3738171322595484    
    0.4997699735572693        0.3823730984675439    
    0.5091995956998593        0.3909202332053801    
    0.5186292178424493        0.3994513236088654    
    0.5280588399850392        0.4079591951353624    
    0.5374884621276292        0.4164367206610410    
    0.5469180842702193        0.4248768299660551    
    0.5563477064128093        0.4332725195574166    
    0.5657773285553992        0.4416168627717840    
    0.5752069506979892        0.4499030200937164    
    0.5846365728405792        0.4581242496191651    
    0.5940661949831691        0.4662739175892685    
    0.6034958171257592        0.4743455089158314    
    0.6129254392683492        0.4823326376175148    
    0.6223550614109391        0.4902290570843941    
    0.6317846835535291        0.4980286700885520    
    0.6412143056961191        0.5057255384595349    
    0.6506439278387091        0.5133138923458659    
    0.6600735499812991        0.5207881389872967    
    0.6695031721238891        0.5281428709272088    
    0.6789327942664791        0.5353728736000994    
    0.6883624164090690        0.5424731322358091    
    0.6977920385516591        0.5494388380295312    
    0.7072216606942491        0.5562653935347667    
    0.7166512828368390        0.5629484172452736    
    0.7260809049794290        0.5694837473411074    
    0.7355105271220190        0.5758674445835534    
    0.7449401492646089        0.5820957943533043    
    0.7543697714071990        0.5881653078361196    
    0.7637993935497890        0.5940727223696903    
    0.7732290156923789        0.5998150009748373    
    0.7826586378349689        0.6053893311030915    
    0.7920882599775589        0.6107931226410875    
    0.8015178821201489        0.6160240052199070    
    0.8109475042627389        0.6210798248844969    
    0.8203771264053289        0.6259586401843051    
    0.8298067485479188        0.6306587177514084    
    0.8392363706905088        0.6351785274364168    
    0.8486659928330988        0.6395167370755411    
    0.8580956149756889        0.6436722069638532    
    0.8675252371182788        0.6476439841107372    
    0.8769548592608688        0.6514312963528504    
    0.8863844814034588        0.6550335463984920    
    0.8958141035460487        0.6584503058746956    
    0.9052437256886388        0.6616813094444103    
    0.9146733478312288        0.6647264490568351    
    0.9241029699738187        0.6675857683881387    
    0.9335325921164087        0.6702594575236419    
    0.9429622142589987        0.6727478479254719    
    0.9523918364015886        0.6750514077221311    
    0.9618214585441787        0.6771707373484376    
    0.9712510806867687        0.6791065655559997    
    0.9806807028293587        0.6808597458058343    
    0.9901103249719486        0.6824312530464026    
    0.9995399471145386        0.6838221808717637    
     1.008969569257129        0.6850337390465826    
     1.018399191399719        0.6860672513767911    
     1.027828813542309        0.6869241538976600    
     1.037258435684899        0.6876059933440342    
     1.046688057827489        0.6881144258621564    
     1.056117679970078        0.6884512159165381    
     1.065547302112668        0.6886182353420747    
     1.074976924255258        0.6886174624874182    
     1.084406546397849        0.6884509813941508    
     1.093836168540439        0.6881209809543567    
     1.103265790683029        0.6876297539896219    
     1.112695412825619        0.6869796961949164    
     1.122125034968208        0.6861733048929585    
     1.131554657110798        0.6852131775472725    
     1.140984279253388        0.6841020099865032    
     1.150413901395978        0.6828425942965484    
     1.159843523538568        0.6814378163431357    
     1.169273145681158        0.6798906528935222    
     1.178702767823748        0.6782041683126644    
     1.188132389966338        0.6763815108166330    
     1.197562012108928        0.6744259082738151    
     1.206991634251518        0.6723406635521427    
     1.216421256394108        0.6701291494188601    
     1.225850878536698        0.6677948030071111    
     1.235280500679288        0.6653411198793159    
     1.244710122821878        0.6627716767214844    
     1.254139744964468        0.6600900615946143    
     1.263569367107058        0.6572998812051997    
     1.272998989249648        0.6544047983410654    
     1.282428611392238        0.6514084996191351    
     1.291858233534828        0.6483146879384643    
     1.301287855677418        0.6451270748626553    
     1.310717477820008        0.6418493729980900    
     1.320147099962598        0.6384852884365321    
     1.329576722105188        0.6350385133311622    
     1.339006344247778        0.6315127186751389    
     1.348435966390368        0.6279115473506213    
     1.357865588532958        0.6242386075137241    
     1.367295210675548        0.6204974663780864    
     1.376724832818138        0.6166916444554632    
     1.386154454960728        0.6128246103067544    
     1.395584077103318        0.6088997758514648    
     1.405013699245908        0.6049204922770226    
     1.414443321388498        0.6008900465825875    
     1.423872943531088        0.5968116587837108    
     1.433302565673678        0.5926884797983448    
     1.442732187816268        0.5885235900329489    
     1.452161809958858        0.5843199985567153    
     1.461591432101448        0.5800806434454086    
     1.471021054244038        0.5758083852335633    
     1.480450676386628        0.5715059924472854    
     1.489880298529218        0.5671761372988599    
     1.499309920671808        0.5628213985774532    
     1.508739542814398        0.5584442641171811    
     1.518169164956988        0.5540471333223074    
     1.527598787099578        0.5496323196202882    
     1.537028409242168        0.5452020528592346    
     1.546458031384758        0.5407584816488591    
     1.555887653527348        0.5363036756471703    
     1.565317275669938        0.5318396277937540    
     1.574746897812528        0.5273682564910522    
     1.584176519955118        0.5228914077345012    
     1.593606142097708        0.5184108571926824    
     1.603035764240298        0.5139283122386030    
     1.612465386382888        0.5094454139329309    
     1.621895008525478        0.5049637389601822    
     1.631324630668068        0.5004848015187622    
     1.640754252810658        0.4960100551657031    
     1.650183874953248        0.4915408946170585    
     1.659613497095838        0.4870786575045977    
     1.669043119238428        0.4826246260897594    
     1.678472741381018        0.4781800289356075    
     1.687902363523608        0.4737460425374848    
     1.697331985666198        0.4693237929132228    
     1.706761607808788        0.4649143571535960    
     1.716191229951378        0.4605187649337800    
     1.725620852093968        0.4561379999865341    
     1.735050474236558        0.4517730015378001    
     1.744480096379148        0.4474246657054424    
     1.753909718521738        0.4430938468618329    
     1.763339340664328        0.4387813589610349    
     1.772768962806918        0.4344879768311065    
     1.782198584949507        0.4302144374324167    
     1.791628207092097        0.4259614410824921    
     1.801057829234687        0.4217296526482095    
     1.810487451377278        0.4175197027058406    
     1.819917073519868        0.4133321886696870    
     1.829346695662458        0.4091676758900646    
     1.838776317805048        0.4050266987211623    
     1.848205939947637        0.4009097615593376    
     1.857635562090227        0.3968173398527332    
     1.867065184232817        0.3927498810827305    
     1.876494806375407        0.3887078057177099    
     1.885924428517997        0.3846915081399805    
     1.895354050660587        0.3807013575464223    
     1.904783672803177        0.3767376988232707    
     1.914213294945767        0.3728008533959523    
     1.923642917088357        0.3688911200542719    
     1.933072539230947        0.3650087757536890    
     1.942502161373537        0.3611540763932303    
     1.951931783516127        0.3573272575705757    
     1.961361405658717        0.3535285353148696    
     1.970791027801307        0.3497581067979103    
     1.980220649943897        0.3460161510240596    
     1.989650272086487        0.3423028294995896    
     1.999079894229077        0.3386182868819245    
     2.008509516371667        0.3349626516092117    
     2.017939138514257        0.3313360365108387    
     2.027368760656847        0.3277385393993710    
     2.036798382799437        0.3241702436443095    
     2.046228004942027        0.3206312187282026    
     2.055657627084617        0.3171215207856699    
     2.065087249227207        0.3136411931255835    
     2.074516871369797        0.3101902667370484    
     2.083946493512387        0.3067687607795395    
     2.093376115654977        0.3033766830575785    
     2.102805737797567        0.3000140304805043    
     2.112235359940157        0.2966807895076093    
     2.121664982082747        0.2933769365791064    
     2.131094604225337        0.2901024385333466    
     2.140524226367927        0.2868572530106120    
     2.149953848510517        0.2836413288438977    
     2.159383470653107        0.2804546064370375    
     2.168813092795697        0.2772970181305409    
     2.178242714938287        0.2741684885554684    
     2.187672337080877        0.2710689349757178    
     2.197101959223467        0.2679982676190354    
     2.206531581366057        0.2649563899970801    
     2.215961203508647        0.2619431992148595    
     2.225390825651237        0.2589585862698439    
     2.234820447793827        0.2560024363410708    
     2.244250069936417        0.2530746290685219    
     2.253679692079007        0.2501750388230575    
     2.263109314221597        0.2473035349672011    
     2.272538936364187        0.2444599821070365    
     2.281968558506777        0.2416442403354964    
     2.291398180649367        0.2388561654672677    
     2.300827802791957        0.2360956092655917    
     2.310257424934547        0.2333624196611989    
     2.319687047077137        0.2306564409636325    
     2.329116669219727        0.2279775140651690    
     2.338546291362317        0.2253254766375351    
     2.347975913504907        0.2227001633217079    
     2.357405535647497        0.2201014059109949    
     2.366835157790087        0.2175290335275284    
     2.376264779932677        0.2149828727924657    
     2.385694402075267        0.2124627479900629    
     2.395124024217857        0.2099684812257850    
     2.404553646360447        0.2074998925786736    
     2.413983268503037        0.2050568002481526    
     2.423412890645626        0.2026390206954042    
     2.432842512788217        0.2002463687795334    
     2.442272134930807        0.1978786578886567    
     2.451701757073397        0.1955357000661090    
     2.461131379215987        0.1932173061318816    
     2.470561001358577        0.1909232857994596    
     2.479990623501167        0.1886534477882308    
     2.489420245643756        0.1864075999315822    
     2.498849867786347        0.1841855492808230    
     2.508279489928936        0.1819871022050728    
     2.517709112071527        0.1798120644872523    
     2.527138734214116        0.1776602414163128    
     2.536568356356706        0.1755314378757968    
     2.545997978499297        0.1734254584288609    
     2.555427600641886        0.1713421073999028    
     2.564857222784477        0.1692811889528764    
     2.574286844927066        0.1672425071664009    
     2.583716467069657        0.1652258661057990    
     2.593146089212246        0.1632310698921428    
     2.602575711354836        0.1612579227684098    
     2.612005333497426        0.1593062291628533    
     2.621434955640016        0.1573757937496707    
     2.630864577782607        0.1554664215070711    
     2.640294199925196        0.1535779177728264    
     2.649723822067787        0.1517100882973893    
     2.659153444210376        0.1498627392946584    
     2.668583066352966        0.1480356774904766    
     2.678012688495556        0.1462287101689344    
     2.687442310638146        0.1444416452165596    
     2.696871932780736        0.1426742911644631    
     2.706301554923326        0.1409264572285095    
     2.715731177065916        0.1391979533475778    
     2.725160799208506        0.1374885902199899    
     2.734590421351096        0.1357981793381622    
     2.744020043493686        0.1341265330215419    
     2.753449665636276        0.1324734644478919    
     2.762879287778866        0.1308387876829789    
     2.772308909921456        0.1292223177087230    
     2.781738532064046        0.1276238704498625    
     2.791168154206636        0.1260432627991918    
     2.800597776349226        0.1244803126414128    
     2.810027398491816        0.1229348388756545    
     2.819457020634406        0.1214066614367110    
     2.828886642776996        0.1198956013150431    
     2.838316264919586        0.1184014805755878    
     2.847745887062176        0.1169241223754124    
     2.857175509204766        0.1154633509802658    
     2.866605131347356        0.1140189917800596    
     2.876034753489946        0.1125908713033217    
     2.885464375632536        0.1111788172306580    
     2.894893997775126        0.1097826584072624    
     2.904323619917716        0.1084022248545052    
     2.913753242060306        0.1070373477806372    
     2.923182864202896        0.1056878595906411    
     2.932612486345486        0.1043535938952642    
     2.942042108488076        0.1030343855192607    
     2.951471730630666        0.1017300705088773    
     2.960901352773256        0.1004404861386028    
     2.970330974915846        0.9916547091721710E-01
     2.979760597058436        0.9790486459316489E-01
     2.989190219201026        0.9665850815927965E-01
     2.998619841343616        0.9542624385688026E-01
     3.008049463486206        0.9420791517926602E-01
     3.017479085628796        0.9300336687463671E-01
     3.026908707771386        0.9181244494845535E-01
     3.036338329913976        0.9063499666527799E-01
     3.045767952056566        0.8947087055007220E-01
     3.055197574199156        0.8831991638904198E-01
     3.064627196341746        0.8718198522998177E-01
     3.074056818484336        0.8605692938217618E-01
     3.083486440626926        0.8494460241586442E-01
     3.092916062769516        0.8384485916128799E-01
     3.102345684912106        0.8275755570733755E-01
     3.111775307054696        0.8168254939981621E-01
     3.121204929197286        0.8061969883933498E-01
     3.130634551339876        0.7956886387885455E-01
     3.140064173482465        0.7852990562088993E-01
     3.149493795625056        0.7750268641439265E-01
     3.158923417767646        0.7648706985132160E-01
     3.168353039910236        0.7548292076291818E-01
     3.177782662052826        0.7449010521569811E-01
     3.187212284195416        0.7350849050717323E-01
     3.196641906338006        0.7253794516131233E-01
     3.206071528480595        0.7157833892375549E-01
     3.215501150623186        0.7062954275679319E-01
     3.224930772765775        0.6969142883411880E-01
     3.234360394908366        0.6876387053536666E-01
     3.243790017050955        0.6784674244044497E-01
     3.253219639193546        0.6693992032367325E-01
     3.262649261336136        0.6604328114773544E-01
     3.272078883478725        0.6515670305745494E-01
     3.281508505621316        0.6428006537340179E-01
     3.290938127763905        0.6341324858534121E-01
     3.300367749906496        0.6255613434552944E-01
     3.309797372049085        0.6170860546186747E-01
     3.319226994191675        0.6087054589091848E-01
     3.328656616334265        0.6004184073079537E-01
     3.338086238476855        0.5922237621392892E-01
     3.347515860619446        0.5841203969972129E-01
     3.356945482762035        0.5761071966708822E-01
     3.366375104904626        0.5681830570690238E-01
     3.375804727047215        0.5603468851436199E-01
     3.385234349189805        0.5525975988125711E-01
     3.394663971332395        0.5449341268782586E-01
     3.404093593474985        0.5373554089536373E-01
     3.413523215617575        0.5298603953897282E-01
     3.422952837760165        0.5224480471741742E-01
     3.432382459902755        0.5151173358495528E-01
     3.441812082045345        0.5078672434574607E-01
     3.451241704187935        0.5006967624337726E-01
     3.460671326330525        0.4936048955870345E-01
     3.470100948473115        0.4865906559263470E-01
     3.479530570615705        0.4796530665679439E-01
     3.488960192758295        0.4727911607361347E-01
     3.498389814900885        0.4660039816561352E-01
     3.507819437043475        0.4592905824472033E-01
     3.517249059186065        0.4526500260377227E-01
     3.526678681328655        0.4460813850878456E-01
     3.536108303471245        0.4395837419059148E-01
     3.545537925613835        0.4331561883614408E-01
     3.554967547756425        0.4267978257991692E-01
     3.564397169899015        0.4205077649538343E-01
     3.573826792041605        0.4142851258646091E-01
     3.583256414184195        0.4081290377894713E-01
     3.592686036326785        0.4020386391195595E-01
     3.602115658469375        0.3960130772935594E-01
     3.611545280611965        0.3900515087121399E-01
     3.620974902754555        0.3841530986524400E-01
     3.630404524897145        0.3783170211826497E-01
     3.639834147039735        0.3725424590767056E-01
     3.649263769182325        0.3668286037291186E-01
     3.658693391324915        0.3611746550699590E-01
     3.668123013467505        0.3555798214800077E-01
     3.677552635610095        0.3500433197060927E-01
     3.686982257752685        0.3445643747766522E-01
     3.696411879895275        0.3391422199175070E-01
     3.705841502037865        0.3337760964678880E-01
     3.715271124180455        0.3284652537967198E-01
     3.724700746323045        0.3232089492191707E-01
     3.734130368465635        0.3180064479135052E-01
     3.743559990608225        0.3128570228382286E-01
     3.752989612750815        0.3077599546495509E-01
     3.762419234893405        0.3027145316191830E-01
     3.771848857035995        0.2977200495524614E-01
     3.781278479178585        0.2927758117068398E-01
     3.790708101321175        0.2878811287107361E-01
     3.800137723463765        0.2830353184827541E-01
     3.809567345606355        0.2782377061512949E-01
     3.818996967748945        0.2734876239745608E-01
     3.828426589891535        0.2687844112609448E-01
     3.837856212034125        0.2641274142898460E-01
     3.847285834176715        0.2595159862329045E-01
     3.856715456319305        0.2549494870756660E-01
     3.866145078461895        0.2504272835396703E-01
     3.875574700604485        0.2459487490049809E-01
     3.885004322747075        0.2415132634331613E-01
     3.894433944889665        0.2371202132907151E-01
     3.903863567032255        0.2327689914729745E-01
     3.913293189174845        0.2284589972284625E-01
     3.922722811317435        0.2241896360837038E-01
     3.932152433460025        0.2199603197685289E-01
     3.941582055602614        0.2157704661418472E-01
     3.951011677745205        0.2116194991179035E-01
     3.960441299887794        0.2075068485930200E-01
     3.969870922030385        0.2034319503728201E-01
     3.979300544172975        0.1993942460999540E-01
     3.988730166315564        0.1953931831823085E-01
     3.998159788458155        0.1914282147217167E-01
     4.007589410600745        0.1874987994431744E-01
     4.017019032743335        0.1836044016245375E-01
     4.026448654885924        0.1797444910267379E-01
     4.035878277028514        0.1759185428244962E-01
     4.045307899171104        0.1721260375375420E-01
     4.054737521313695        0.1683664609623328E-01
     4.064167143456284        0.1646393041042856E-01
     4.073596765598874        0.1609440631105121E-01
     4.083026387741464        0.1572802392030567E-01
     4.092456009884055        0.1536473386126517E-01
     4.101885632026645        0.1500448725129704E-01
     4.111315254169234        0.1464723569553878E-01
     4.120744876311824        0.1429293128042473E-01
     4.130174498454414        0.1394152656726367E-01
     4.139604120597005        0.1359297458586591E-01
     4.149033742739594        0.1324722882822139E-01
     4.158463364882184        0.1290424324222845E-01
     4.167892987024774        0.1256397222547133E-01
     4.177322609167364        0.1222637061904883E-01
     4.186752231309955        0.1189139370145214E-01
     4.196181853452544        0.1155899718249237E-01
     4.205611475595134        0.1122913719727719E-01
     4.215041097737724        0.1090177030023718E-01
     4.224470719880314        0.1057685345920101E-01
     4.233900342022904        0.1025434404951909E-01
     4.243329964165494        0.9934199848236385E-02
     4.252759586308084        0.9616379028312323E-02
     4.262189208450674        0.9300840152956406E-02
     4.271618830593265        0.8987542182860079E-02
     4.281048452735854        0.8676444806582756E-02
     4.290478074878444        0.8367510890456276E-02
     4.299907697021034        0.8060714083134184E-02
     4.309337319163624        0.7756051873406308E-02
     4.318766941306214        0.7453560409724657E-02
     4.328196563448804        0.7153326670022827E-02
     4.337626185591394        0.6855495453371278E-02
     4.347055807733984        0.6560270781537876E-02
     4.356485429876574        0.6267912583489099E-02
     4.365915052019164        0.5978730004372979E-02
     4.375344674161754        0.5693072658564122E-02
     4.384774296304344        0.5411320912523057E-02
     4.394203918446934        0.5133876000776335E-02
     4.403633540589524        0.4861150522504837E-02
     4.413063162732114        0.4593559662084378E-02
     4.422492784874704        0.4331513325675506E-02
     4.431922407017294        0.4075409279625230E-02
     4.441352029159884        0.3825627304945799E-02
     4.450781651302474        0.3582524336246027E-02
     4.460211273445064        0.3346430525723748E-02
     4.469640895587654        0.3117646157534420E-02
     4.479070517730244        0.2896439330900548E-02
     4.488500139872833        0.2683044328807763E-02
     4.497929762015424        0.2477660591000695E-02
     4.507359384158014        0.2280452213869247E-02
     4.516789006300604        0.2091547904736357E-02
     4.526218628443194        0.1911041323398508E-02
     4.535648250585783        0.1738991749068330E-02
     4.545077872728374        0.1575425015817985E-02
     4.554507494870964        0.1420334663940616E-02
     4.563937117013554        0.1273683258070254E-02
     4.573366739156143        0.1135403825065233E-02
     4.582796361298734        0.1005401365030341E-02
     4.592225983441324        0.8835543865117325E-03
     4.601655605583914        0.7697164102174768E-03
     4.611085227726504        0.6637173715569508E-03
     4.620514849869093        0.5653648249115146E-03
     4.629944472011684        0.4744447996327831E-03
     4.639374094154274        0.3907220525609569E-03
     4.648803716296864        0.3139392412033914E-03
     4.658233338439453        0.2438140416630515E-03
     4.667662960582043        0.1800319752556500E-03
     4.677092582724634        0.1222290257304761E-03
     4.686522204867224        0.6994531213272320E-04
     4.695951827009814        0.2245593808092745E-04
     4.705381449152403         0.000000000000000    
  0  3  2  0  0.000000   #orbital l, n, z, is_polarized, population
 500    0.6314257936014910E-02     3.150814710071440     # npts, delta, cutoff
     0.000000000000000       -0.2942119626205877    
    0.6314257936014910E-02   -0.2941017205113425    
    0.1262851587202982E-01   -0.2937663759346812    
    0.1894277380804473E-01   -0.2932076645843211    
    0.2525703174405964E-01   -0.2924258836435750    
    0.3157128968007455E-01   -0.2914214477862838    
    0.3788554761608946E-01   -0.2901948889525161    
    0.4419980555210437E-01   -0.2887468555939603    
    0.5051406348811928E-01   -0.2870781117021656    
    0.5682832142413419E-01   -0.2851895356586162    
    0.6314257936014910E-01   -0.2830821189188940    
    0.6945683729616400E-01   -0.2807569645389187    
    0.7577109523217893E-01   -0.2782152855506854    
    0.8208535316819383E-01   -0.2754584031951957    
    0.8839961110420874E-01   -0.2724877450207266    
    0.9471386904022365E-01   -0.2693048428550792    
    0.1010281269762386       -0.2659113306609132    
    0.1073423849122535       -0.2623089422836965    
    0.1136566428482684       -0.2584995091021596    
    0.1199709007842833       -0.2544849575914560    
    0.1262851587202982       -0.2502673068094660    
    0.1325994166563131       -0.2458486658168622    