<preamble>

<basis_specs>
===============================================================================
Sb                   Z=  51    Mass=  121.76        Charge= 0.17977+309
Lmxo=2 Lmxkb= 2    BasisType=split      Semic=T
L=0  Nsemic=0  Cnfigmx=5
          i=1  nzeta=2  polorb=0  (5s)
            splnorm:   0.15000    
               vcte:    40.000    
               rinn:    5.0515    
               qcoe:    0.0000    
               qyuk:    0.0000    
               qwid:   0.10000E-01
                rcs:    5.6128      3.9168    
            lambdas:    1.0000      1.0000    
L=1  Nsemic=0  Cnfigmx=5
          i=1  nzeta=2  polorb=0  (5p)  (to be polarized non-perturbatively)
            splnorm:   0.15000    
               vcte:    40.000    
               rinn:    6.5673    
               qcoe:    0.0000    
               qyuk:    0.0000    
               qwid:   0.10000E-01
                rcs:    7.2970      5.1805    
            lambdas:    1.0000      1.0000    
L=2  Nsemic=1  Cnfigmx=5
          i=1  nzeta=1  polorb=0  (4d)  (semicore shell)
            splnorm:   0.15000    
               vcte:    40.000    
               rinn:    2.9430    
               qcoe:    0.0000    
               qyuk:    0.0000    
               qwid:   0.10000E-01
                rcs:    3.2667    
            lambdas:    1.0000    
          i=2  nzeta=1  polorb=0  (5d)  (non-perturbative polarization shell)
            splnorm:   0.15000    
               vcte:    40.000    
               rinn:    6.5739    
               qcoe:    0.0000    
               qyuk:    0.0000    
               qwid:   0.10000E-01
                rcs:    7.2970    
            lambdas:    1.0000    
-------------------------------------------------------------------------------
L=0  Nkbl=1  erefs: 0.17977+309
L=1  Nkbl=1  erefs: 0.17977+309
L=2  Nkbl=2  erefs: 0.17977+309 0.17977+309
===============================================================================
</basis_specs>

<pseudopotential_header>
 Sb pb nrl pcec
 ONCVPSP-3.2017-10-31Hamann's oncvpsp                        
 5s 2.00  r= 1.82/5p 3.00  r= 2.12/4d10.00  r= 1.82/                    4d:5s:5p:
</pseudopotential_header>
</preamble>
Sb                            # Symbol
Sb                            # Label
   51                         # Atomic number
     15.0000000000                             # Valence charge
     121.760000000        # Mass 
     226.755309103        # Self energy 
   2   6                      # Lmax for basis, no. of nl orbitals 
   2   6                      # Lmax for projectors, no. of nl KB projectors
# PAOs:__________________________
  0  5  1  0  2.000000   #orbital l, n, z, is_polarized, population
 500    0.1124809679564063E-01     5.612800301024674     # npts, delta, cutoff
     0.000000000000000        0.4565137887278562E-01
    0.1124809679564063E-01    0.4572540730362362E-01
    0.2249619359128126E-01    0.4595075127153325E-01
    0.3374429038692189E-01    0.4632579139240676E-01
    0.4499238718256252E-01    0.4684972937968391E-01
    0.5624048397820314E-01    0.4752145335081816E-01
    0.6748858077384377E-01    0.4833954303420477E-01
    0.7873667756948441E-01    0.4930227660284239E-01
    0.8998477436512503E-01    0.5040763896770041E-01
    0.1012328711607657        0.5165333146812415E-01
    0.1124809679564063        0.5303678289980841E-01
    0.1237290647520469        0.5455516181520122E-01
    0.1349771615476875        0.5620539002440119E-01
    0.1462252583433282        0.5798415721789486E-01
    0.1574733551389688        0.5988793662615529E-01
    0.1687214519346094        0.6191300162527709E-01
    0.1799695487302501        0.6405544319252138E-01
    0.1912176455258907        0.6631118811091989E-01
    0.2024657423215313        0.6867601781797771E-01
    0.2137138391171720        0.7114558779003301E-01
    0.2249619359128126        0.7371544735101668E-01
    0.2362100327084532        0.7638105979220546E-01
    0.2474581295040938        0.7913782268810832E-01
    0.2587062262997344        0.8198108829285992E-01
    0.2699543230953751        0.8490618390143058E-01
    0.2812024198910157        0.8790843206059995E-01
    0.2924505166866563        0.9098317051596576E-01
    0.3036986134822970        0.9412577178327451E-01
    0.3149467102779376        0.9733166223503890E-01
    0.3261948070735782        0.1005963405967417    
    0.3374429038692189        0.1039153957508906    
    0.3486910006648595        0.1072845237517464    
    0.3599390974605001        0.1106995439586946    
    0.3711871942561408        0.1141564142019017    
    0.3824352910517814        0.1176512449000801    
    0.3936833878474220        0.1211803120568275    
    0.4049314846430626        0.1247400690690721    
    0.4161795814387033        0.1283271572885873    
    0.4274276782343439        0.1319384152853103    
    0.4386757750299845        0.1355708867692354    
    0.4499238718256252        0.1392218271359262    
    0.4611719686212658        0.1428887086091311    
    0.4724200654169064        0.1465692239625538    
    0.4836681622125470        0.1502612888114644    
    0.4949162590081877        0.1539630424734791    
    0.5061643558038283        0.1576728474064485    
    0.5174124525994689        0.1613892872399038    
    0.5286605493951095        0.1651111634248853    
    0.5399086461907502        0.1688374905351358    
    0.5511567429863908        0.1725674902605840    
    0.5624048397820315        0.1763005841416559    
    0.5736529365776720        0.1800363851002471    
    0.5849010333733127        0.1837746878300998    
    0.5961491301689533        0.1875154581157920    
    0.6073972269645940        0.1912588211555749    
    0.6186453237602346        0.1950050489688031    
    0.6298934205558753        0.1987545469736936    
    0.6411415173515158        0.2025078398255713    
    0.6523896141471565        0.2062655566096115    
    0.6636377109427971        0.2100284154853279    
    0.6748858077384378        0.2137972078826772    
    0.6861339045340784        0.2175727823516497    
    0.6973820013297189        0.2213560281685495    
    0.7086300981253596        0.2251478588028944    
    0.7198781949210002        0.2289491953489050    
    0.7311262917166409        0.2327609500249891    
    0.7423743885122815        0.2365840098433950    
    0.7536224853079221        0.2404192205503977    
    0.7648705821035627        0.2442673709349117    
    0.7761186788992034        0.2481291776004177    
    0.7873667756948440        0.2520052702915056    
    0.7986148724904847        0.2558961778621952    
    0.8098629692861252        0.2598023149685755    
    0.8211110660817659        0.2637239695632226    
    0.8323591628774065        0.2676612912632743    
    0.8436072596730472        0.2716142806581490    
    0.8548553564686878        0.2755827796165765    
    0.8661034532643285        0.2795664626460080    
    0.8773515500599690        0.2835648293505996    
    0.8885996468556097        0.2875771980268462    
    0.8998477436512503        0.2916027004286911    
    0.9110958404468910        0.2956402777264789    
    0.9223439372425316        0.2996886776766959    
    0.9335920340381721        0.3037464530118476    
    0.9448401308338128        0.3078119610523476    
    0.9560882276294534        0.3118833645348723    
    0.9673363244250941        0.3159586336442166    
    0.9785844212207347        0.3200355492286084    
    0.9898325180163754        0.3241117071713566    
     1.001080614812016        0.3281845238850364    
     1.012328711607657        0.3322512428879213    
     1.023576808403297        0.3363089424162753    
     1.034824905198938        0.3403545440202863    
     1.046073001994579        0.3443848220860636    
     1.057321098790219        0.3483964142211398    
     1.068569195585860        0.3523858324365142    
     1.079817292381500        0.3563494750540184    
     1.091065389177141        0.3602836392644237    
     1.102313485972782        0.3641845342586685    
     1.113561582768422        0.3680482948518424    
     1.124809679564063        0.3718709955180469    
     1.136057776359704        0.3756486647523364    
     1.147305873155344        0.3793772996754377    
     1.158553969950985        0.3830528807963757    
     1.169802066746625        0.3866713868484624    
     1.181050163542266        0.3902288096149096    
     1.192298260337907        0.3937211686615474    
     1.203546357133547        0.3971445258956800    
     1.214794453929188        0.4004949998728241    
     1.226042550724828        0.4037687797755418    
     1.237290647520469        0.4069621389918662    
     1.248538744316110        0.4100714482242463    
     1.259786841111751        0.4130931880642367    
     1.271034937907391        0.4160239609723980    
     1.282283034703032        0.4188605026074919    
     1.293531131498672        0.4215996924541746    
     1.304779228294313        0.4242385637033984    
     1.316027325089954        0.4267743123455519    
     1.327275421885594        0.4292043054417907    
     1.338523518681235        0.4315260885447025    
     1.349771615476876        0.4337373922453727    
     1.361019712272516        0.4358361378300228    
     1.372267809068157        0.4378204420352959    
     1.383515905863797        0.4396886208966054    
     1.394764002659438        0.4414391926907625    
     1.406012099455079        0.4430708799792683    
     1.417260196250719        0.4445826107640419    
     1.428508293046360        0.4459735187734452    
     1.439756389842000        0.4472429429011133    
     1.451004486637641        0.4483904258252958    
     1.462252583433282        0.4494157118412153    
     1.473500680228922        0.4503187439427374    
     1.484748777024563        0.4510996601947822    
     1.495996873820204        0.4517587894405890    
     1.507244970615844        0.4522966463911813    
     1.518493067411485        0.4527139261490266    
     1.529741164207125        0.4530114982177069    
     1.540989261002766        0.4531904000535866    
     1.552237357798407        0.4532518302171472    
     1.563485454594047        0.4531971411802154    
     1.574733551389688        0.4530278318507054    
     1.585981648185329        0.4527455398722655    
     1.597229744980969        0.4523520337582265    
     1.608477841776610        0.4518492049209065    
     1.619725938572250        0.4512390596498443    
     1.630974035367891        0.4505237111005408    
     1.642222132163532        0.4497053713444409    
     1.653470228959173        0.4487863435342647    
     1.664718325754813        0.4477690142371029    
     1.675966422550454        0.4466558459770535    
     1.687214519346094        0.4454493700402971    
     1.698462616141735        0.4441521795739963    
     1.709710712937376        0.4427669230254624    
     1.720958809733016        0.4412962980114926    
     1.732206906528657        0.4397430454159338    
     1.743455003324297        0.4381099439687376    
     1.754703100119938        0.4363998055005419    
     1.765951196915579        0.4346154705015058    
     1.777199293711219        0.4327598041865134    
     1.788447390506860        0.4308356917270615    
     1.799695487302501        0.4288460356191279    
     1.810943584098141        0.4267937596629364    
     1.822191680893782        0.4246818024396719    
     1.833439777689422        0.4225130878666913    
     1.844687874485063        0.4202904899479493    
     1.855935971280704        0.4180168007442004    
     1.867184068076344        0.4156947138222541    
     1.878432164871985        0.4133268307999133    
     1.889680261667626        0.4109156692264151    
     1.900928358463266        0.4084636635153268    
     1.912176455258907        0.4059731666630818    
     1.923424552054547        0.4034464528302070    
     1.934672648850188        0.4008857197216967    
     1.945920745645829        0.3982930909180333    
     1.957168842441469        0.3956706180908929    
     1.968416939237110        0.3930202831527628    
     1.979665036032751        0.3903440003650956    
     1.990913132828391        0.3876436183828877    
     2.002161229624032        0.3849209222370434    
     2.013409326419672        0.3821776352588107    
     2.024657423215313        0.3794154209484142    
     2.035905520010954        0.3766358847858456    
     2.047153616806594        0.3738405759890150    
     2.058401713602235        0.3710309892204858    
     2.069649810397876        0.3682085662310873    
     2.080897907193517        0.3653746974736135    
     2.092146003989157        0.3625307236499760    
     2.103394100784798        0.3596779372033970    
     2.114642197580438        0.3568175837995738    
     2.125890294376079        0.3539508637663379    
     2.137138391171720        0.3510789333946462    
     2.148386487967360        0.3482029063634626    
     2.159634584763001        0.3453238550291499    
     2.170882681558641        0.3424428115279612    
     2.182130778354282        0.3395607691284464    
     2.193378875149923        0.3366786834004624    
     2.204626971945563        0.3337974733257061    
     2.215875068741204        0.3309180224030286    
     2.227123165536844        0.3280411798189314    
     2.238371262332485        0.3251677614144299    
     2.249619359128126        0.3222985506824118    
     2.260867455923766        0.3194342997991395    
     2.272115552719407        0.3165757305802769    
     2.283363649515048        0.3137235354087184    
     2.294611746310688        0.3108783781321828    
     2.305859843106329        0.3080408949467864    
     2.317107939901970        0.3052116952498309    
     2.328356036697610        0.3023913624701434    
     2.339604133493251        0.2995804548726527    
     2.350852230288891        0.2967795063402394    
     2.362100327084532        0.2939890271358771    
     2.373348423880173        0.2912095046389681    
     2.384596520675813        0.2884414040646021    
     2.395844617471454        0.2856851691599873    
     2.407092714267094        0.2829412228813669    
     2.418340811062735        0.2802099680532866    
     2.429588907858376        0.2774917880066337    
     2.440837004654016        0.2747870472006085    
     2.452085101449657        0.2720960918260647    
     2.463333198245298        0.2694192503914591    
     2.474581295040938        0.2667568342929702    
     2.485829391836579        0.2641091383674911    
     2.497077488632220        0.2614764414302773    
     2.508325585427860        0.2588590067971718    
     2.519573682223501        0.2562570827920031    
     2.530821779019142        0.2536709032389723    
     2.542069875814782        0.2511006879415494    
     2.553317972610423        0.2485466431475077    
     2.564566069406063        0.2460089619996926    
     2.575814166201704        0.2434878249753858    
     2.587062262997345        0.2409834003117149    
     2.598310359792985        0.2384958444188627    
     2.609558456588626        0.2360253022825047    
     2.620806553384266        0.2335719078528249    
     2.632054650179907        0.2311357844234009    
     2.643302746975548        0.2287170449993883    
     2.654550843771188        0.2263157926531152    
     2.665798940566829        0.2239321208714278    
     2.677047037362470        0.2215661138921023    
     2.688295134158110        0.2192178470291164    
     2.699543230953751        0.2168873869905648    
     2.710791327749392        0.2145747921858608    
     2.722039424545032        0.2122801130234058    
     2.733287521340673        0.2100033922010038    
     2.744535618136314        0.2077446649864494    
     2.755783714931954        0.2055039594897904    
     2.767031811727595        0.2032812969282742    
     2.778279908523235        0.2010766918826065    
     2.789528005318876        0.1988901525456727    
     2.800776102114517        0.1967216809641265    
     2.812024198910157        0.1945712732723875    
     2.823272295705798        0.1924389199196315    
     2.834520392501438        0.1903246058898725    
     2.845768489297079        0.1882283109155037    
     2.857016586092720        0.1861500096842393    
     2.868264682888360        0.1840896720394919    
     2.879512779684001        0.1820472631750960    
     2.890760876479642        0.1800227438238532    
     2.902008973275282        0.1780160704397935    
     2.913257070070923        0.1760271953755281    
     2.924505166866564        0.1740560670539895    
     2.935753263662204        0.1721026301340368    
     2.947001360457845        0.1701668256717641    
     2.958249457253485        0.1682485912769194    
     2.969497554049126        0.1663478612631990    
     2.980745650844767        0.1644645667947385    
     2.991993747640407        0.1625986360285319    
     3.003241844436048        0.1607499942507073    
     3.014489941231688        0.1589185640093720    
     3.025738038027329        0.1571042652441439    
     3.036986134822970        0.1553070154096500    
     3.048234231618610        0.1535267295959685    
     3.059482328414251        0.1517633206459424    
     3.070730425209891        0.1500166992673597    
     3.081978522005532        0.1482867741419666    
     3.093226618801173        0.1465734520313746    
     3.104474715596814        0.1448766378790438    
     3.115722812392454        0.1431962349087716    
     3.126970909188095        0.1415321447202486    
     3.138219005983736        0.1398842673815105    
     3.149467102779376        0.1382525015178872    
     3.160715199575017        0.1366367443982712    
     3.171963296370657        0.1350368920184864    
     3.183211393166298        0.1334528391817281    
     3.194459489961939        0.1318844795763684    
     3.205707586757579        0.1303317058509499    
     3.216955683553220        0.1287944096867692    
     3.228203780348860        0.1272724818679828    
     3.239451877144501        0.1257658123491983    
     3.250699973940142        0.1242742903204723    
     3.261948070735782        0.1227978042706067    
     3.273196167531423        0.1213362420479425    
     3.284444264327063        0.1198894909185595    
     3.295692361122704        0.1184574376231161    
     3.306940457918345        0.1170399684314165    
     3.318188554713986        0.1156369691948824    
     3.329436651509626        0.1142483253969251    
     3.340684748305267        0.1128739222021475    
     3.351932845100908        0.1115136445033727    
     3.363180941896548        0.1101673769665593    
     3.374429038692189        0.1088350040746802    
     3.385677135487829        0.1075164101697271    
     3.396925232283470        0.1062114794929001    
     3.408173329079111        0.1049200962229683    
     3.419421425874751        0.1036421445149896    
     3.430669522670392        0.1023775085402134    
     3.441917619466032        0.1011260725121656    
     3.453165716261673        0.9988772072206406E-01
     3.464413813057314        0.9866233757206558E-01
     3.475661909852954        0.9744980757618053E-01
     3.486910006648595        0.9625001547699419E-01
     3.498158103444236        0.9506284619559323E-01
     3.509406200239876        0.9388818489190442E-01
     3.520654297035517        0.9272591700014277E-01
     3.531902393831158        0.9157592814309194E-01
     3.543150490626798        0.9043810429400453E-01
     3.554398587422439        0.8931233180268015E-01
     3.565646684218079        0.8819849721577459E-01
     3.576894781013720        0.8709648752436648E-01
     3.588142877809361        0.8600619018415122E-01
     3.599390974605001        0.8492749303221646E-01
     3.610639071400642        0.8386028431197404E-01
     3.621887168196282        0.8280445269601572E-01
     3.633135264991923        0.8175988730826635E-01
     3.644383361787564        0.8072647774584198E-01
     3.655631458583204        0.7970411410014099E-01
     3.666879555378845        0.7869268697102406E-01
     3.678127652174485        0.7769208747901725E-01
     3.689375748970126        0.7670220727641686E-01
     3.700623845765767        0.7572293855695732E-01
     3.711871942561408        0.7475417406824308E-01
     3.723120039357048        0.7379580712328433E-01
     3.734368136152689        0.7284773161132019E-01
     3.745616232948330        0.7190984200822409E-01
     3.756864329743970        0.7098203338561429E-01
     3.768112426539611        0.7006420141959895E-01
     3.779360523335251        0.6915624239906117E-01
     3.790608620130892        0.6825805323343687E-01
     3.801856716926533        0.6736953146003734E-01
     3.813104813722173        0.6649057525089438E-01
     3.824352910517814        0.6562108341914878E-01
     3.835601007313454        0.6476095542499948E-01
     3.846849104109095        0.6391009138122722E-01
     3.858097200904736        0.6306839205831039E-01
     3.869345297700376        0.6223575888914350E-01
     3.880593394496017        0.6141209397337578E-01
     3.891841491291657        0.6059730008137714E-01
     3.903089588087298        0.5979128065784949E-01
     3.914337684882939        0.5899393982509297E-01
     3.925585781678580        0.5820518238593988E-01
     3.936833878474220        0.5742491382636603E-01
     3.948081975269861        0.5665304031779412E-01
     3.959330072065502        0.5588946871909455E-01
     3.970578168861142        0.5513410657830038E-01
     3.981826265656783        0.5438686213404160E-01
     3.993074362452423        0.5364764431670990E-01
     4.004322459248064        0.5291636274936428E-01
     4.015570556043705        0.5219292774838621E-01
     4.026818652839345        0.5147725032389235E-01
     4.038066749634986        0.5076924217991399E-01
     4.049314846430627        0.5006881571435260E-01
     4.060562943226267        0.4937588401871736E-01
     4.071811040021908        0.4869036087765383E-01
     4.083059136817548        0.4801216076827180E-01
     4.094307233613189        0.4734119885927811E-01
     4.105555330408830        0.4667739100992298E-01
     4.116803427204470        0.4602065376876531E-01
     4.128051524000111        0.4537090437226553E-01
     4.139299620795751        0.4472806074320990E-01
     4.150547717591392        0.4409204148897481E-01
     4.161795814387033        0.4346276589963700E-01
     4.173043911182673        0.4284015394593250E-01
     4.184292007978314        0.4222412627707393E-01
     4.195540104773954        0.4161460421843109E-01
     4.206788201569595        0.4101150976907583E-01
     4.218036298365236        0.4041476559920257E-01
     4.229284395160876        0.3982429504742599E-01
     4.240532491956517        0.3924002211796018E-01
     4.251780588752157        0.3866187147768646E-01
     4.263028685547798        0.3808976845311285E-01
     4.274276782343439        0.3752363902722902E-01
     4.285524879139079        0.3696340983626323E-01
     4.296772975934720        0.3640900816634381E-01
     4.308021072730361        0.3586036195006877E-01
     4.319269169526001        0.3531739976298832E-01
     4.330517266321642        0.3478005082000602E-01
     4.341765363117283        0.3424824497169735E-01
     4.353013459912924        0.3372191270055448E-01
     4.364261556708564        0.3320098511715771E-01
     4.375509653504205        0.3268539395627648E-01
     4.386757750299846        0.3217507157290699E-01
     4.398005847095486        0.3166995093824505E-01
     4.409253943891127        0.3116996563559988E-01
     4.420502040686767        0.3067504985625075E-01
     4.431750137482408        0.3018513839525057E-01
     4.442998234278049        0.2970016664717842E-01
     4.454246331073689        0.2922007060184321E-01
     4.465494427869330        0.2874478683994230E-01
     4.476742524664970        0.2827425252867600E-01
     4.487990621460611        0.2780840541732332E-01
     4.499238718256252        0.2734718383277783E-01
     4.510486815051892        0.2689052667504941E-01
     4.521734911847533        0.2643837341272998E-01
     4.532983008643173        0.2599066407842987E-01
     4.544231105438814        0.2554733926418514E-01
     4.555479202234455        0.2510834011683606E-01
     4.566727299030095        0.2467360833338244E-01
     4.577975395825736        0.2424308615631332E-01
     4.589223492621376        0.2381671636891727E-01
     4.600471589417017        0.2339444229057295E-01
     4.611719686212658        0.2297620777202128E-01
     4.622967783008298        0.2256195719062239E-01
     4.634215879803939        0.2215163544559607E-01
     4.645463976599579        0.2174518795325204E-01
     4.656712073395220        0.2134256064220823E-01
     4.667960170190861        0.2094369994859820E-01
     4.679208266986501        0.2054855281127259E-01
     4.690456363782142        0.2015706666698911E-01
     4.701704460577782        0.1976918944560260E-01
     4.712952557373423        0.1938486956524780E-01
     4.724200654169064        0.1900405592751925E-01
     4.735448750964705        0.1862669791265100E-01
     4.746696847760346        0.1825274537469216E-01
     4.757944944555986        0.1788214863668763E-01
     4.769193041351627        0.1751485848585786E-01
     4.780441138147268        0.1715082616878197E-01
     4.791689234942908        0.1679000338658544E-01
     4.802937331738549        0.1643234229012881E-01
     4.814185428534189        0.1607779547520776E-01
     4.825433525329830        0.1572631597775625E-01
     4.836681622125471        0.1537785726905791E-01
     4.847929718921111        0.1503237325096686E-01
     4.859177815716752        0.1468981825113381E-01
     4.870425912512392        0.1435014701824764E-01
     4.881674009308033        0.1401331471728388E-01
     4.892922106103674        0.1367927692476633E-01
     4.904170202899314        0.1334798962404077E-01
     4.915418299694955        0.1301940920055880E-01
     4.926666396490595        0.1269349243717838E-01
     4.937914493286236        0.1237019650947733E-01
     4.949162590081877        0.1204947898108144E-01
     4.960410686877517        0.1173129779900746E-01
     4.971658783673158        0.1141561128902127E-01
     4.982906880468798        0.1110237815101228E-01
     4.994154977264439        0.1079155745438624E-01
     5.005403074060080        0.1048310863347371E-01
     5.016651170855720        0.1017699148295591E-01
     5.027899267651361        0.9873166153309808E-02
     5.039147364447002        0.9571593146267524E-02
     5.050395461242642        0.9272233310300837E-02
     5.061643558038283        0.8975047836120088E-02
     5.072891654833923        0.8679998252193663E-02
     5.084139751629564        0.8387046420358884E-02
     5.095387848425205        0.8096154545271987E-02
     5.106635945220845        0.7807285530829432E-02
     5.117884042016486        0.7520405609460107E-02
     5.129132138812126        0.7235492484071191E-02
     5.140380235607767        0.6952549266077166E-02
     5.151628332403408        0.6671620215245418E-02
     5.162876429199049        0.6392803542545646E-02
     5.174124525994690        0.6116258583187050E-02
     5.185372622790330        0.5842206929456054E-02
     5.196620719585971        0.5570928491667991E-02
     5.207868816381612        0.5302753952813983E-02
     5.219116913177252        0.5038055052293450E-02
     5.230365009972893        0.4777233877261522E-02
     5.241613106768533        0.4520712032214423E-02
     5.252861203564174        0.4268920279199631E-02
     5.264109300359815        0.4022289019098357E-02
     5.275357397155455        0.3781239819908961E-02
     5.286605493951096        0.3546178082132479E-02
     5.297853590746736        0.3317486853322895E-02
     5.309101687542377        0.3095521753603802E-02
     5.320349784338018        0.2880606943442437E-02
     5.331597881133658        0.2673032048055052E-02
     5.342845977929299        0.2473049945072123E-02
     5.354094074724939        0.2280875320342394E-02
     5.365342171520580        0.2096683898796303E-02
     5.376590268316221        0.1920612261613875E-02
     5.387838365111861        0.1752758166514891E-02
     5.399086461907502        0.1593181294104259E-02
     5.410334558703142        0.1441904349389937E-02
     5.421582655498783        0.1298914453500139E-02
     5.432830752294424        0.1164164765982786E-02
     5.444078849090064        0.1037576282630594E-02
     5.455326945885705        0.9190397572149458E-03
     5.466575042681345        0.8084176973777804E-03
     5.477823139476986        0.7055463844602962E-03
     5.489071236272627        0.6102378628883462E-03
     5.500319333068267        0.5222818343411391E-03
     5.511567429863908        0.4414473703491488E-03
     5.522815526659548        0.3674843139276703E-03
     5.534063623455189        0.3001241538254211E-03
     5.545311720250830        0.2390799705405779E-03
     5.556559817046471        0.1840446322979996E-03
     5.567807913842111        0.1346853522482996E-03
     5.579056010637752        0.9062958442553611E-04
     5.590304107433393        0.5142627560708322E-04
     5.601552204229034        0.1640202144449528E-04
     5.612800301024674         0.000000000000000    
  0  5  2  0  0.000000   #orbital l, n, z, is_polarized, population
 500    0.7849337701417913E-02     3.916819513007539     # npts, delta, cutoff
     0.000000000000000       -0.3009193422195520    
    0.7849337701417913E-02   -0.3008475144303955    
    0.1569867540283583E-01   -0.3006252924512975    
    0.2354801310425374E-01   -0.3002551732813818    
    0.3139735080567165E-01   -0.2997375361046152    
    0.3924668850708957E-01   -0.2990729096579987    
    0.4709602620850747E-01   -0.2982619714683998    
    0.5494536390992539E-01   -0.2973055463251729    
    0.6279470161134330E-01   -0.2962046043555729    
    0.7064403931276121E-01   -0.2949602587487737    