<preamble>

<basis_specs>
===============================================================================
Si                   Z=  14    Mass=  28.090        Charge= 0.17977+309
Lmxo=2 Lmxkb= 2    BasisType=split      Semic=F
L=0  Nsemic=0  Cnfigmx=3
          i=1  nzeta=2  polorb=0  (3s)
            splnorm:   0.15000    
               vcte:    40.000    
               rinn:    5.1538    
               qcoe:    0.0000    
               qyuk:    0.0000    
               qwid:   0.10000E-01
                rcs:    5.7264      3.9563    
            lambdas:    1.0000      1.0000    
L=1  Nsemic=0  Cnfigmx=3
          i=1  nzeta=2  polorb=1  (3p)  (to be polarized perturbatively)
            splnorm:   0.15000    
               vcte:    40.000    
               rinn:    6.6267    
               qcoe:    0.0000    
               qyuk:    0.0000    
               qwid:   0.10000E-01
                rcs:    7.3557      5.1701    
            lambdas:    1.0000      1.0000    
L=2  Nsemic=0  Cnfigmx=3
          i=1  nzeta=0  polorb=0  (3d)  (perturbative polarization orbital) (from 3p)
-------------------------------------------------------------------------------
L=0  Nkbl=1  erefs: 0.17977+309
L=1  Nkbl=1  erefs: 0.17977+309
L=2  Nkbl=1  erefs: 0.17977+309
===============================================================================
</basis_specs>

<pseudopotential_header>
 Si pb nrl pcec
 ONCVPSP-3.2017-10-31Hamann's oncvpsp                        
 3s 2.00  r= 1.60/3p 2.00  r= 1.72/3d 0.00  r= 1.92/                    3s:3p:
</pseudopotential_header>
</preamble>
Si                            # Symbol
Si                            # Label
   14                         # Atomic number
     4.00000000000                             # Valence charge
     28.0900000000        # Mass 
     14.2535667225        # Self energy 
   2   5                      # Lmax for basis, no. of nl orbitals 
   2   6                      # Lmax for projectors, no. of nl KB projectors
# PAOs:__________________________
  0  3  1  0  2.000000   #orbital l, n, z, is_polarized, population
 500    0.1147572826013672E-01     5.726388401808221     # npts, delta, cutoff
     0.000000000000000        0.1212809090502182    
    0.1147572826013672E-01    0.1213474261959055    
    0.2295145652027343E-01    0.1215493943312596    
    0.3442718478041015E-01    0.1218859893646838    
    0.4590291304054686E-01    0.1223571797355012    
    0.5737864130068358E-01    0.1229629157406853    
    0.6885436956082029E-01    0.1237031238182963    
    0.8033009782095701E-01    0.1245776995152688    
    0.9180582608109372E-01    0.1255864991843633    
    0.1032815543412304        0.1267293305577853    
    0.1147572826013672        0.1280059423743091    
    0.1262330108615039        0.1294160132563384    
    0.1377087391216406        0.1309591400482273    
    0.1491844673817773        0.1326348258379152    
    0.1606601956419140        0.1344424678904818    
    0.1721359239020507        0.1363813457245474    
    0.1836116521621874        0.1384506095604957    
    0.1950873804223242        0.1406492693633445    
    0.2065631086824609        0.1429761846928556    
    0.2180388369425976        0.1454300555593573    
    0.2295145652027343        0.1480094144660305    
    0.2409902934628710        0.1507126197974292    
    0.2524660217230077        0.1535378506901448    
    0.2639417499831445        0.1564831034952723    
    0.2754174782432812        0.1595461899141608    
    0.2868932065034179        0.1627247368593785    
    0.2983689347635546        0.1660161880624564    
    0.3098446630236913        0.1694178074193443    
    0.3213203912838281        0.1729266840342198    
    0.3327961195439648        0.1765397388928738    
    0.3442718478041015        0.1802537330689268    
    0.3557475760642382        0.1840652773400973    
    0.3672233043243749        0.1879708430681599    
    0.3786990325845116        0.1919667741754939    
    0.3901747608446483        0.1960493000336366    
    0.4016504891047850        0.2002145490653044    
    0.4131262173649217        0.2044585628511889    
    0.4246019456250585        0.2087773105266593    
    0.4360776738851952        0.2131667032513462    
    0.4475534021453319        0.2176226085365234    
    0.4590291304054686        0.2221408642211719    
    0.4705048586656053        0.2267172918973882    
    0.4819805869257420        0.2313477095993208    
    0.4934563151858787        0.2360279435866544    
    0.5049320434460155        0.2407538390735843    
    0.5164077717061522        0.2455212697767408    
    0.5278834999662889        0.2503261461802819    
    0.5393592282264256        0.2551644224427868    
    0.5508349564865623        0.2600321018982040    
    0.5623106847466991        0.2649252411313827    
    0.5737864130068357        0.2698399526370419    
    0.5852621412669725        0.2747724060989915    
    0.5967378695271092        0.2797188283532560    
    0.6082135977872459        0.2846755021242422    
    0.6196893260473826        0.2896387636464530    
    0.6311650543075193        0.2946049993052902    
    0.6426407825676561        0.2995706414485960    
    0.6541165108277928        0.3045321635356405    
    0.6655922390879295        0.3094860748017985    
    0.6770679673480662        0.3144289146250671    
    0.6885436956082029        0.3193572467847416    
    0.7000194238683396        0.3242676538028297    
    0.7114951521284764        0.3291567315552772    
    0.7229708803886130        0.3340210843327546    
    0.7344466086487498        0.3388573205199762    
    0.7459223369088865        0.3436620490481817    
    0.7573980651690232        0.3484318767582578    
    0.7688737934291600        0.3531634067919144    
    0.7803495216892966        0.3578532381060151    
    0.7918252499494334        0.3624979661810854    
    0.8033009782095700        0.3670941849693754    
    0.8147767064697068        0.3716384901015024    
    0.8262524347298434        0.3761274833438942    
    0.8377281629899802        0.3805577782726156    
    0.8492038912501170        0.3849260071033011    
    0.8606796195102536        0.3892288285921434    
    0.8721553477703904        0.3934629368998374    
    0.8836310760305270        0.3976250712894779    
    0.8951068042906638        0.4017120265110207    
    0.9065825325508005        0.4057206637093405    
    0.9180582608109372        0.4096479216806570    
    0.9295339890710740        0.4134908282931318    
    0.9410097173312106        0.4172465118821032    
    0.9524854455913474        0.4209122124287999    
    0.9639611738514841        0.4244852923333811    
    0.9754369021116208        0.4279632465988855    
    0.9869126303717575        0.4313437122519445    
    0.9983883586318942        0.4346244768387218    
     1.009864086892031        0.4378034858502735    
     1.021339815152168        0.4408788489501409    
     1.032815543412304        0.4438488448979315    
     1.044291271672441        0.4467119250856533    
     1.055766999932578        0.4494667156284267    
     1.067242728192715        0.4521120179766631    
     1.078718456452851        0.4546468080434772    
     1.090194184712988        0.4570702338675259    
     1.101669912973125        0.4593816118575930    
     1.113145641233261        0.4615804216906082    
     1.124621369493398        0.4636662999586785    
     1.136097097753535        0.4656390326828398    
     1.147572826013671        0.4674985468311633    
     1.159048554273808        0.4692449009961523    
     1.170524282533945        0.4708782754007413    
     1.182000010794082        0.4723989614135826    
     1.193475739054218        0.4738073507619547    
     1.204951467314355        0.4751039246350843    
     1.216427195574492        0.4762892428714030    
     1.227902923834629        0.4773639334203947    
     1.239378652094765        0.4783286822632945    
     1.250854380354902        0.4791842239671591    
     1.262330108615039        0.4799313330338569    
     1.273805836875175        0.4805708161896011    
     1.285281565135312        0.4811035057420449    
     1.296757293395449        0.4815302541112537    
     1.308233021655586        0.4818519296180584    
     1.319708749915722        0.4820694135891708    
     1.331184478175859        0.4821835988132349    
     1.342660206435996        0.4821953893565489    
     1.354135934696132        0.4821057017212012    
     1.365611662956269        0.4819154673032759    
     1.377087391216406        0.4816256360845075    
     1.388563119476543        0.4812371814676502    
     1.400038847736679        0.4807511061446457    
     1.411514575996816        0.4801684488676706    
     1.422990304256953        0.4794902919767304    
     1.434466032517089        0.4787177695233940    
     1.445941760777226        0.4778520758197811    
     1.457417489037363        0.4768944742344988    
     1.468893217297500        0.4758463060526849    
     1.480368945557636        0.4747089992168300    
     1.491844673817773        0.4734840767674711    
     1.503320402077910        0.4721731648085977    
     1.514796130338046        0.4707779998319689    
     1.526271858598183        0.4693004352460174    
     1.537747586858320        0.4677424469694468    
     1.549223315118456        0.4661061379720345    
     1.560699043378593        0.4643937419326337    
     1.572174771638730        0.4626076247337920    
     1.583650499898867        0.4607502829226217    
     1.595126228159004        0.4588243526100489    
     1.606601956419140        0.4568326054906865    
     1.618077684679277        0.4547778913738990    
     1.629553412939414        0.4526630581383286    
     1.641029141199550        0.4504908832455672    
     1.652504869459687        0.4482640531410036    
     1.663980597719824        0.4459851770221834    
     1.675456325979960        0.4436567901033319    
     1.686932054240097        0.4412813529275396    
     1.698407782500234        0.4388612530759490    
     1.709883510760370        0.4363988069565151    
     1.721359239020507        0.4338962616658718    
     1.732834967280644        0.4313557964730747    
     1.744310695540781        0.4287795246101069    
     1.755786423800918        0.4261694948734074    
     1.767262152061054        0.4235276929826592    
     1.778737880321191        0.4208560434610452    
     1.790213608581328        0.4181564110265137    
     1.801689336841464        0.4154306021925304    
     1.813165065101601        0.4126803668184544    
     1.824640793361738        0.4099073994296875    
     1.836116521621874        0.4071133407046340    
     1.847592249882011        0.4042997789108978    
     1.859067978142148        0.4014682512434264    
     1.870543706402285        0.3986202451599015    
     1.882019434662421        0.3957571996922173    
     1.893495162922558        0.3928805067197561    
     1.904970891182695        0.3899915122128743    
     1.916446619442831        0.3870915174476576    
     1.927922347702968        0.3841817801913041    
     1.939398075963105        0.3812635158591554    
     1.950873804223242        0.3783378986439109    
     1.962349532483378        0.3754060626178178    
     1.973825260743515        0.3724691028084184    
     1.985300989003652        0.3695280762485871    
     1.996776717263788        0.3665840030014121    
     2.008252445523925        0.3636378671606176    
     2.019728173784062        0.3606906178271249    
     2.031203902044199        0.3577431700623482    
     2.042679630304336        0.3547964058187798    
     2.054155358564472        0.3518511748484152    
     2.065631086824609        0.3489082955895809    
     2.077106815084746        0.3459685560326438    
     2.088582543344882        0.3430327145651160    
     2.100058271605019        0.3401015007966125    
     2.111533999865156        0.3371756163641229    
     2.123009728125292        0.3342557357180656    
     2.134485456385429        0.3313425068894779    
     2.145961184645566        0.3284365522388680    
     2.157436912905702        0.3255384691869560    
     2.168912641165839        0.3226488309279146    
     2.180388369425976        0.3197681871252431    
     2.191864097686113        0.3168970645908459    
     2.203339825946249        0.3140359679475074    
     2.214815554206386        0.3111853802752045    
     2.226291282466523        0.3083457637415865    
     2.237767010726659        0.3055175602168508    
     2.249242738986796        0.3027011918735346    
     2.260718467246933        0.2998970617712472    
     2.272194195507069        0.2971055544269910    
     2.283669923767206        0.2943270363710649    
     2.295145652027343        0.2915618566890426    
     2.306621380287480        0.2888103475500629    
     2.318097108547617        0.2860728247216150    
     2.329572836807753        0.2833495880713505    
     2.341048565067890        0.2806409220558546    
     2.352524293328027        0.2779470961969960    
     2.364000021588163        0.2752683655458658    
     2.375475749848300        0.2726049711346623    
     2.386951478108437        0.2699571404168813    
     2.398427206368574        0.2673250876958028    
     2.409902934628710        0.2647090145418681    
     2.421378662888847        0.2621091101988905    
     2.432854391148984        0.2595255519795031    
     2.444330119409120        0.2569585056501181    
     2.455805847669257        0.2544081258054308    
     2.467281575929394        0.2518745562329880    
     2.478757304189530        0.2493579302678014    
     2.490233032449667        0.2468583711373388    
     2.501708760709804        0.2443759922971713    
     2.513184488969941        0.2419108977573207    
     2.524660217230077        0.2394631823997249    
     2.536135945490214        0.2370329322868975    
     2.547611673750351        0.2346202249620010    
     2.559087402010487        0.2322251297406212    
     2.570563130270624        0.2298477079943343    
     2.582038858530761        0.2274880134263346    
     2.593514586790898        0.2251460923392995    
     2.604990315051035        0.2228219838956594    
     2.616466043311171        0.2205157203704903    
     2.627941771571308        0.2182273273971875    
     2.639417499831445        0.2159568242061230    
     2.650893228091581        0.2137042238564148    
     2.662368956351718        0.2114695334610414    
     2.673844684611855        0.2092527544054343    
     2.685320412871991        0.2070538825596921    
     2.696796141132128        0.2048729084846714    
     2.708271869392265        0.2027098176319843    
     2.719747597652402        0.2005645905381154    
     2.731223325912538        0.1984372030129108    
     2.742699054172675        0.1963276263223639    
     2.754174782432812        0.1942358273660250    
     2.765650510692948        0.1921617688491989    
     2.777126238953085        0.1901054094498522    
     2.788601967213222        0.1880667039806064    
     2.800077695473358        0.1860456035458961    
     2.811553423733495        0.1840420556942259    
     2.823029151993632        0.1820560045659308    
     2.834504880253768        0.1800873910364515    
     2.845980608513905        0.1781361528551076    
     2.857456336774042        0.1762022247797396    
     2.868932065034179        0.1742855387072027    
     2.880407793294316        0.1723860237997230    
     2.891883521554452        0.1705036066074604    
     2.903359249814589        0.1686382111872464    
     2.914834978074726        0.1667897592175143    
     2.926310706334863        0.1649581701097473    
     2.937786434594999        0.1631433611164113    
     2.949262162855136        0.1613452474353900    
     2.960737891115273        0.1595637423112143    
     2.972213619375409        0.1577987571330857    
     2.983689347635546        0.1560502015296601    
     2.995165075895683        0.1543179834608973    
     3.006640804155819        0.1526020093069823    
     3.018116532415956        0.1509021839542666    
     3.029592260676093        0.1492184108785103    
     3.041067988936230        0.1475505922254561    
     3.052543717196366        0.1458986288886683    
     3.064019445456503        0.1442624205848825    
     3.075495173716640        0.1426418659269288    
     3.086970901976776        0.1410368624941480    
     3.098446630236913        0.1394473069005252    
     3.109922358497050        0.1378730948605813    
     3.121398086757186        0.1363141212530147    
     3.132873815017323        0.1347702801822250    
     3.144349543277460        0.1332414650377739    
     3.155825271537597        0.1317275685518225    
     3.167300999797733        0.1302284828546104    
     3.178776728057870        0.1287440995280455    
     3.190252456318007        0.1272743096574507    
     3.201728184578144        0.1258190038815268    
     3.213203912838280        0.1243780724405852    
     3.224679641098417        0.1229514052230763    
     3.236155369358554        0.1215388918105234    
     3.247631097618691        0.1201404215208565    
     3.259106825878827        0.1187558834501905    
     3.270582554138964        0.1173851665131417    
     3.282058282399101        0.1160281594816989    
     3.293534010659237        0.1146847510226800    
     3.305009738919374        0.1133548297338053    
     3.316485467179511        0.1120382841785136    
     3.327961195439647        0.1107350029194671    
     3.339436923699784        0.1094448745507710    
     3.350912651959921        0.1081677877290665    
     3.362388380220057        0.1069036312034258    
     3.373864108480194        0.1056522938441018    
     3.385339836740331        0.1044136646701706    
     3.396815565000468        0.1031876328761652    
     3.408291293260604        0.1019740878576447    
     3.419767021520741        0.1007729192357163    
     3.431242749780878        0.9958401688067069E-01
     3.442718478041014        0.9840727093463827E-01
     3.454194206301151        0.9724257183332796E-01
     3.465669934561288        0.9608981032686498E-01
     3.477145662821425        0.9494887749982671E-01
     3.488621391081562        0.9381966479041445E-01
     3.500097119341698        0.9270206400879154E-01
     3.511572847601835        0.9159596735468782E-01
     3.523048575861972        0.9050126743423438E-01
     3.534524304122108        0.8941785727606003E-01
     3.546000032382245        0.8834563034664883E-01
     3.557475760642382        0.8728448056506188E-01
     3.568951488902518        0.8623430231695930E-01
     3.580427217162655        0.8519499046797208E-01
     3.591902945422792        0.8416644037644563E-01
     3.603378673682929        0.8314854790559537E-01
     3.614854401943065        0.8214120943505702E-01
     3.626330130203202        0.8114432187185766E-01
     3.637805858463339        0.8015778266084729E-01
     3.649281586723475        0.7918148979459065E-01
     3.660757314983612        0.7821534182273736E-01
     3.672233043243749        0.7725923786088103E-01
     3.683708771503885        0.7631307759894197E-01
     3.695184499764022        0.7537676130907056E-01
     3.706660228024159        0.7445018985309365E-01
     3.718135956284296        0.7353326468951389E-01
     3.729611684544432        0.7262588788008394E-01
     3.741087412804569        0.7172796209596087E-01
     3.752563141064706        0.7083939062345797E-01
     3.764038869324843        0.6996007736940589E-01
     3.775514597584980        0.6908992686613427E-01
     3.786990325845116        0.6822884427608890E-01
     3.798466054105253        0.6737673539609255E-01
     3.809941782365390        0.6653350666126301E-01
     3.821417510625526        0.6569906514859898E-01
     3.832893238885663        0.6487331858024319E-01
     3.844368967145800        0.6405617532643514E-01
     3.855844695405936        0.6324754440816177E-01
     3.867320423666073        0.6244733549951669E-01
     3.878796151926210        0.6165545892977881E-01
     3.890271880186346        0.6087182568521590E-01
     3.901747608446483        0.6009634741062434E-01
     3.913223336706620        0.5932893641061690E-01
     3.924699064966757        0.5856950565066121E-01
     3.936174793226893        0.5781796875788061E-01
     3.947650521487030        0.5707424002162207E-01
     3.959126249747167        0.5633823439380654E-01
     3.970601978007303        0.5560986748906149E-01
     3.982077706267440        0.5488905558464684E-01
     3.993553434527577        0.5417571562017454E-01
     4.005029162787713        0.5346976519714461E-01
     4.016504891047850        0.5277112257828797E-01
     4.027980619307987        0.5207970668673145E-01
     4.039456347568124        0.5139543710498375E-01
     4.050932075828261        0.5071823407376170E-01
     4.062407804088397        0.5004801849065033E-01
     4.073883532348534        0.4938471190860849E-01
     4.085359260608671        0.4872823653432234E-01
     4.096834988868808        0.4807851522641740E-01
     4.108310717128944        0.4743547149353029E-01
     4.119786445389081        0.4679902949224509E-01
     4.131262173649217        0.4616911402490520E-01
     4.142737901909355        0.4554565053729744E-01
     4.154213630169491        0.4492856511621829E-01
     4.165689358429628        0.4431778448692573E-01
     4.177165086689764        0.4371323601048207E-01
     4.188640814949901        0.4311484768099717E-01
     4.200116543210037        0.4252254812275803E-01
     4.211592271470175        0.4193626658727086E-01
     4.223067999730311        0.4135593295020530E-01
     4.234543727990448        0.4078147770826544E-01
     4.246019456250584        0.4021283197595327E-01
     4.257495184510721        0.3964992748226311E-01
     4.268970912770858        0.3909269656729445E-01
     4.280446641030995        0.3854107217880190E-01
     4.291922369291131        0.3799498786866697E-01
     4.303398097551268        0.3745437778929430E-01
     4.314873825811405        0.3691917668995499E-01
     4.326349554071542        0.3638931991306214E-01
     4.337825282331679        0.3586474339041244E-01
     4.349301010591815        0.3534538363933440E-01
     4.360776738851952        0.3483117775880961E-01
     4.372252467112088        0.3432206342553532E-01
     4.383728195372226        0.3381797888995529E-01
     4.395203923632362        0.3331886297223593E-01
     4.406679651892499        0.3282465505819570E-01
     4.418155380152635        0.3233529509520632E-01
     4.429631108412772        0.3185072358805349E-01
     4.441106836672909        0.3137088159479256E-01
     4.452582564933046        0.3089571072250905E-01
     4.464058293193182        0.3042515312307800E-01
     4.475534021453319        0.2995915148882918E-01
     4.487009749713455        0.2949764904830993E-01
     4.498485477973593        0.2904058956225065E-01
     4.509961206233729        0.2858791731888698E-01
     4.521436934493866        0.2813957712979538E-01
     4.532912662754002        0.2769551432629851E-01
     4.544388391014139        0.2725567475304437E-01
     4.555864119274276        0.2682000476484617E-01
     4.567339847534413        0.2638845122250063E-01
     4.578815575794549        0.2596096148804841E-01
     4.590291304054686        0.2553748341897803E-01
     4.601767032314823        0.2511796536809071E-01
     4.613242760574960        0.2470235617499335E-01
     4.624718488835097        0.2429060516274063E-01
     4.636194217095233        0.2388266213338992E-01
     4.647669945355370        0.2347847736336462E-01
     4.659145673615506        0.2307800159983473E-01
     4.670621401875643        0.2268118605549524E-01
     4.682097130135780        0.2228798240450521E-01
     4.693572858395917        0.2189834277982872E-01
     4.705048586656053        0.2151221976730921E-01
     4.716524314916190        0.2112956639185448E-01
     4.728000043176326        0.2075033612848860E-01
     4.739475771436464        0.2037448289163834E-01
     4.750951499696600        0.2000196103059732E-01
     4.762427227956737        0.1963272532476228E-01
     4.773902956216873        0.1926673097906619E-01
     4.785378684477010        0.1890393361975384E-01
     4.796854412737147        0.1854428929004034E-01
     4.808330140997284        0.1818775444579418E-01
     4.819805869257420        0.1783428595129555E-01
     4.831281597517557        0.1748384107493938E-01
     4.842757325777693        0.1713637748484297E-01
     4.854233054037831        0.1679185324452465E-01
     4.865708782297967        0.1645022680859816E-01
     4.877184510558104        0.1611145701846935E-01
     4.888660238818241        0.1577550309806011E-01
     4.900135967078377        0.1544232464957063E-01
     4.911611695338514        0.1511188164924539E-01
     4.923087423598651        0.1478413444315745E-01
     4.934563151858788        0.1445904374300975E-01
     4.946038880118924        0.1413657062195484E-01
     4.957514608379061        0.1381667651043546E-01
     4.968990336639198        0.1349932319204267E-01
     4.980466064899335        0.1318447279939446E-01
     4.991941793159471        0.1287208781003428E-01
     5.003417521419608        0.1256213104234730E-01
     5.014893249679744        0.1225456565150302E-01
     5.026368977939882        0.1194935512541538E-01
     5.037844706200018        0.1164646328072387E-01
     5.049320434460155        0.1134585425879881E-01
     5.060796162720291        0.1104749252176176E-01
     5.072271890980428        0.1075134284853672E-01
     5.083747619240565        0.1045737033091815E-01
     5.095223347500702        0.1016554036966224E-01
     5.106699075760838        0.9875818670602500E-02
     5.118174804020975        0.9588171240782199E-02
     5.129650532281111        0.9302564384616642E-02
     5.141126260541249        0.9018964700075131E-02
     5.152601988801385        0.8737339074886049E-02
     5.164077717061522        0.8457654682765044E-02
     5.175553445321659        0.8179878979665805E-02
     5.187029173581795        0.7903979700121494E-02
     5.198504901841932        0.7629924866902968E-02
     5.209980630102069        0.7357683134282584E-02
     5.221456358362206        0.7087226316617685E-02
     5.232932086622342        0.6818537216941430E-02
     5.244407814882479        0.6551623026864318E-02
     5.255883543142615        0.6286530455212294E-02
     5.267359271402753        0.6023358026882478E-02
     5.278834999662889        0.5762262961516835E-02
     5.290310727923026        0.5503462237383815E-02
     5.301786456183162        0.5247228772537150E-02
     5.313262184443299        0.4993884134152709E-02
     5.324737912703436        0.4743789158251121E-02
     5.336213640963573        0.4497333615060755E-02
     5.347689369223709        0.4254925759084502E-02
     5.359165097483846        0.4016982335117666E-02
     5.370640825743982        0.3783919397732680E-02
     5.382116554004120        0.3556144143226108E-02
     5.393592282264256        0.3334047841303721E-02
     5.405068010524393        0.3117999878451496E-02
     5.416543738784529        0.2908342876357294E-02
     5.428019467044666        0.2705388819181840E-02
     5.439495195304803        0.2509416107043378E-02
     5.450970923564940        0.2320667445497303E-02
     5.462446651825076        0.2139348479001437E-02
     5.473922380085213        0.1965627078266192E-02
     5.485398108345350        0.1799633195501961E-02
     5.496873836605487        0.1641459206922126E-02
     5.508349564865624        0.1491160667751971E-02
     5.519825293125760        0.1348757410964562E-02
     5.531301021385897        0.1214234926691665E-02
     5.542776749646033        0.1087545964477919E-02
     5.554252477906171        0.9686123050105552E-03
     5.565728206166307        0.8573266513739851E-03
     5.577203934426444        0.7535545918233000E-03
     5.588679662686580        0.6571365858144684E-03
     5.600155390946717        0.5678899213228468E-03
     5.611631119206854        0.4856105819412278E-03
     5.623106847466991        0.4100749422326356E-03
     5.634582575727127        0.3410411697210787E-03
     5.646058303987264        0.2782501306393860E-03
     5.657534032247400        0.2214254240908191E-03
     5.669009760507537        0.1702717752641329E-03
     5.680485488767674        0.1244700189452172E-03
     5.691961217027811        0.8366396726625044E-04
     5.703436945287947        0.4742417453755242E-04
     5.714912673548084        0.1511312416903695E-04
     5.726388401808221         0.000000000000000    
  0  3  2  0  0.000000   #orbital l, n, z, is_polarized, population
 500    0.7928426262971220E-02     3.956284705222639     # npts, delta, cutoff
     0.000000000000000       -0.1164648934325545    
    0.7928426262971220E-02   -0.1164048707971908    
    0.1585685252594244E-01   -0.1162202407434483    
    0.2378527878891366E-01   -0.1159125305753954    
    0.3171370505188488E-01   -0.1154817531734409    
    0.3964213131485610E-01   -0.1149279271804011    
    0.4757055757782732E-01   -0.1142510784961152    
    0.5549898384079854E-01   -0.1134512418145913    
    0.6342741010376976E-01   -0.1125284624305262    
    0.7135583636674098E-01   -0.1114827983256759    
    0.7928426262971219E-01   -0.1103143225215656    
    0.8721268889268342E-01   -0.1090231256787201    
    0.9514111515565464E-01   -0.1076093189193628    
    0.1030695414186259       -0.1060730368481935    
    0.1109979676815971       -0.1044144407439323    
    0.1189263939445683       -0.1026337218927034    
    0.1268548202075395       -0.1007311050329884    
    0.1347832464705107       -0.9870685188083275E-01
    0.1427116727334820       -0.9656126470319615E-01
    0.1506400989964532       -0.9429468990686009E-01
    0.1585685252594244       -0.9190752161008768E-01
    0.1664969515223956       -0.8940020516433025E-01