<preamble>

<basis_specs>
===============================================================================
Sn                   Z=  50    Mass=  118.71        Charge= 0.17977+309
Lmxo=2 Lmxkb= 2    BasisType=split      Semic=T
L=0  Nsemic=0  Cnfigmx=5
          i=1  nzeta=2  polorb=0  (5s)
            splnorm:   0.15000    
               vcte:    40.000    
               rinn:    5.4076    
               qcoe:    0.0000    
               qyuk:    0.0000    
               qwid:   0.10000E-01
                rcs:    6.0085      4.2184    
            lambdas:    1.0000      1.0000    
L=1  Nsemic=0  Cnfigmx=5
          i=1  nzeta=2  polorb=0  (5p)  (to be polarized non-perturbatively)
            splnorm:   0.15000    
               vcte:    40.000    
               rinn:    7.1938    
               qcoe:    0.0000    
               qyuk:    0.0000    
               qwid:   0.10000E-01
                rcs:    7.9851      5.7321    
            lambdas:    1.0000      1.0000    
L=2  Nsemic=1  Cnfigmx=5
          i=1  nzeta=1  polorb=0  (4d)  (semicore shell)
            splnorm:   0.15000    
               vcte:    40.000    
               rinn:    3.1633    
               qcoe:    0.0000    
               qyuk:    0.0000    
               qwid:   0.10000E-01
                rcs:    3.5113    
            lambdas:    1.0000    
          i=2  nzeta=1  polorb=0  (5d)  (non-perturbative polarization shell)
            splnorm:   0.15000    
               vcte:    40.000    
               rinn:    7.1938    
               qcoe:    0.0000    
               qyuk:    0.0000    
               qwid:   0.10000E-01
                rcs:    7.9851    
            lambdas:    1.0000    
-------------------------------------------------------------------------------
L=0  Nkbl=1  erefs: 0.17977+309
L=1  Nkbl=1  erefs: 0.17977+309
L=2  Nkbl=2  erefs: 0.17977+309 0.17977+309
===============================================================================
</basis_specs>

<pseudopotential_header>
 Sn pb nrl pcec
 ONCVPSP-3.2017-10-31Hamann's oncvpsp                        
 5s 2.00  r= 2.27/5p 2.00  r= 2.62/4d10.00  r= 1.86/                    4d:5s:5p:
</pseudopotential_header>
</preamble>
Sn                            # Symbol
Sn                            # Label
   50                         # Atomic number
     14.0000000000                             # Valence charge
     118.710000000        # Mass 
     172.615329438        # Self energy 
   2   6                      # Lmax for basis, no. of nl orbitals 
   2   6                      # Lmax for projectors, no. of nl KB projectors
# PAOs:__________________________
  0  5  1  0  2.000000   #orbital l, n, z, is_polarized, population
 500    0.1204098272288742E-01     6.008450378720823     # npts, delta, cutoff
     0.000000000000000        0.3282340182557983E-01
    0.1204098272288742E-01    0.3288942490724851E-01
    0.2408196544577484E-01    0.3308969953521174E-01
    0.3612294816866226E-01    0.3342319394832248E-01
    0.4816393089154968E-01    0.3388946335886339E-01
    0.6020491361443710E-01    0.3448788715809247E-01
    0.7224589633732452E-01    0.3521767070335603E-01
    0.8428687906021194E-01    0.3607784772262550E-01
    0.9632786178309936E-01    0.3706728324632990E-01
    0.1083688445059868        0.3818467704482906E-01
    0.1204098272288742        0.3942856755480668E-01
    0.1324508099517616        0.4079733627709936E-01
    0.1444917926746490        0.4228921262683822E-01
    0.1565327753975365        0.4390227921500634E-01
    0.1685737581204239        0.4563447753878017E-01
    0.1806147408433113        0.4748361405636434E-01
    0.1926557235661987        0.4944736662047489E-01
    0.2046967062890861        0.5152329124318112E-01
    0.2167376890119736        0.5370882916349343E-01
    0.2287786717348610        0.5600131418788856E-01
    0.2408196544577484        0.5839798027290460E-01
    0.2528606371806358        0.6089596931801758E-01
    0.2649016199035232        0.6349233913623896E-01
    0.2769426026264107        0.6618407156924856E-01
    0.2889835853492981        0.6896808071340976E-01
    0.3010245680721855        0.7184122122269868E-01
    0.3130655507950729        0.7480029665442386E-01
    0.3251065335179604        0.7784206782361670E-01
    0.3371475162408478        0.8096326113213266E-01
    0.3491884989637352        0.8416057683882197E-01
    0.3612294816866226        0.8743069723760187E-01
    0.3732704644095101        0.9077029471089147E-01
    0.3853114471323975        0.9417603962664357E-01
    0.3973524298552848        0.9764460804813152E-01
    0.4093934125781723        0.1011726892267125    
    0.4214343953010597        0.1047569928489830    
    0.4334753780239471        0.1083942560110772    
    0.4455163607468345        0.1120812498942963    
    0.4575573434697220        0.1158147861178358    
    0.4695983261926094        0.1195917227460380    
    0.4816393089154968        0.1234089699293750    
    0.4936802916383842        0.1272634951602280    
    0.5057212743612717        0.1311523281264686    
    0.5177622570841591        0.1350725651478654    
    0.5298032398070465        0.1390213731824112    
    0.5418442225299339        0.1429959933917957    
    0.5538852052528214        0.1469937442574151    
    0.5659261879757088        0.1510120242405107    
    0.5779671706985962        0.1550483139822404    
    0.5900081534214836        0.1591001780417230    
    0.6020491361443711        0.1631652661723118    
    0.6140901188672584        0.1672413141385739    
    0.6261311015901458        0.1713261440786329    
    0.6381720843130333        0.1754176644186950    
    0.6502130670359207        0.1795138693486875    
    0.6622540497588081        0.1836128378699954    
    0.6742950324816955        0.1877127324282712    
    0.6863360152045830        0.1918117971462220    
    0.6983769979274704        0.1959083556731084    
    0.7104179806503578        0.2000008086694280    
    0.7224589633732452        0.2040876309469291    
    0.7344999460961327        0.2081673682856009    
    0.7465409288190201        0.2122386339507508    
    0.7585819115419075        0.2163001049345509    
    0.7706228942647949        0.2203505179476450    
    0.7826638769876824        0.2243886651874184    
    0.7947048597105697        0.2284133899104752    
    0.8067458424334571        0.2324235818376156    
    0.8187868251563446        0.2364181724202375    
    0.8308278078792320        0.2403961299975636    
    0.8428687906021194        0.2443564548744327    
    0.8549097733250068        0.2482981743495541    
    0.8669507560478943        0.2522203377241984    
    0.8789917387707817        0.2561220113211116    
    0.8910327214936691        0.2600022735432561    
    0.9030737042165565        0.2638602100015052    
    0.9151146869394440        0.2676949087398808    
    0.9271556696623314        0.2715054555862604    
    0.9391966523852188        0.2752909296555829    
    0.9512376351081062        0.2790503990316901    
    0.9632786178309937        0.2827829166527896    
    0.9753196005538810        0.2864875164243492    
    0.9873605832767685        0.2901632095819010    
    0.9994015659996559        0.2938089813247859    
     1.011442548722543        0.2974237877403563    
     1.023483531445431        0.3010065530365184    
     1.035524514168318        0.3045561670987794    
     1.047565496891206        0.3080714833861770    
     1.059606479614093        0.3115513171787541    
     1.071647462336980        0.3149944441869379    
     1.083688445059868        0.3183995995319099    
     1.095729427782755        0.3217654771032790    
     1.107770410505643        0.3250907292989647    
     1.119811393228530        0.3283739671499503    
     1.131852375951418        0.3316137608303836    
     1.143893358674305        0.3348086405516763    
     1.155934341397192        0.3379570978372545    
     1.167975324120080        0.3410575871723873    
     1.180016306842967        0.3441085280216987    
     1.192057289565855        0.3471083072051804    
     1.204098272288742        0.3500552816213883    
     1.216139255011629        0.3529477813048884    
     1.228180237734517        0.3557841128031742    
     1.240221220457404        0.3585625628567132    
     1.252262203180292        0.3612814023642102    
     1.264303185903179        0.3639388906136050    
     1.276344168626067        0.3665332797579506    
     1.288385151348954        0.3690628195142291    
     1.300426134071841        0.3715257620618291    
     1.312467116794729        0.3739203671163864    
     1.324508099517616        0.3762449071538617    
     1.336549082240504        0.3784976727590684    
     1.348590064963391        0.3806769780717348    
     1.360631047686278        0.3827811663032702    
     1.372672030409166        0.3848086152966534    
     1.384713013132053        0.3867577431018421    
     1.396753995854941        0.3886270135385800    
     1.408794978577828        0.3904149417191389    
     1.420835961300716        0.3921200995032862    
     1.432876944023603        0.3937411208581327    
     1.444917926746490        0.3952767070959667    
     1.456958909469378        0.3967256319639745    
     1.468999892192265        0.3980867465602326    
     1.481040874915153        0.3993589840510473    
     1.493081857638040        0.4005413641661931    
     1.505122840360928        0.4016329974491062    
     1.517163823083815        0.4026330892405884    
     1.529204805806702        0.4035409433759116    
     1.541245788529590        0.4043559655760770    
     1.553286771252477        0.4050776665162694    
     1.565327753975365        0.4057056645556511    
     1.577368736698252        0.4062396881135670    
     1.589409719421139        0.4066795776807017    
     1.601450702144027        0.4070252874539588    
     1.613491684866914        0.4072768865850362    
     1.625532667589802        0.4074345600379000    
     1.637573650312689        0.4074986090476506    
     1.649614633035577        0.4074694511778006    
     1.661655615758464        0.4073476199765305    
     1.673696598481351        0.4071337642285436    
     1.685737581204239        0.4068286468086227    
     1.697778563927126        0.4064331431392958    
     1.709819546650014        0.4059482392569261    
     1.721860529372901        0.4053750294992419    
     1.733901512095789        0.4047147138170179    
     1.745942494818676        0.4039685947276475    
     1.757983477541563        0.4031380739197877    
     1.770024460264451        0.4022246485239840    
     1.782065442987338        0.4012299070666128    
     1.794106425710226        0.4001555251283164    
     1.806147408433113        0.3990032607166459    
     1.818188391156000        0.3977749493633501    
     1.830229373878888        0.3964725089092888    
     1.842270356601775        0.3950979544706444    
     1.854311339324663        0.3936532718594062    
     1.866352322047550        0.3921405533682569    
     1.878393304770438        0.3905619414384995    
     1.890434287493325        0.3889196229436131    
     1.902475270216212        0.3872158218781931    
     1.914516252939100        0.3854527943798023    
     1.926557235661987        0.3836328222774399    
     1.938598218384875        0.3817582066715843    
     1.950639201107762        0.3798312623456186    
     1.962680183830650        0.3778543110968290    
     1.974721166553537        0.3758296756841316    
     1.986762149276424        0.3737596740696348    
     1.998803131999312        0.3716466134871649    
     2.010844114722199        0.3694927846680198    
     2.022885097445087        0.3673004563024601    
     2.034926080167974        0.3650718696640023    
     2.046967062890861        0.3628092334327747    
     2.059008045613749        0.3605147187499223    
     2.071049028336637        0.3581904545189749    
     2.083090011059524        0.3558385229705972    
     2.095130993782411        0.3534609555094385    
     2.107171976505299        0.3510597288561823    
     2.119212959228186        0.3486367615016863    
     2.131253941951073        0.3461939104811622    
     2.143294924673961        0.3437329684849474    
     2.155335907396848        0.3412556613072592    
     2.167376890119736        0.3387636456500077    
     2.179417872842623        0.3362585072759066    
     2.191458855565510        0.3337417595280332    
     2.203499838288398        0.3312148421743217    
     2.215540821011285        0.3286791205830784    
     2.227581803734173        0.3261358856611051    
     2.239622786457060        0.3235863542689701    
     2.251663769179947        0.3210316679984768    
     2.263704751902835        0.3184728921503537    
     2.275745734625723        0.3159110200927325    
     2.287786717348610        0.3133469833099767    
     2.299827700071497        0.3107816627536922    
     2.311868682794385        0.3082158997711489    
     2.323909665517272        0.3056505045958992    
     2.335950648240160        0.3030862580672618    
     2.347991630963047        0.3005239104747637    
     2.360032613685934        0.2979641817605359    
     2.372073596408822        0.2954077630101365    
     2.384114579131709        0.2928553175897073    
     2.396155561854597        0.2903074819796824    
     2.408196544577484        0.2877648666512709    
     2.420237527300372        0.2852280568451465    
     2.432278510023259        0.2826976133888709    
     2.444319492746146        0.2801740734852861    
     2.456360475469034        0.2776579514740637    
     2.468401458191921        0.2751497395642902    
     2.480442440914809        0.2726499085455124    
     2.492483423637696        0.2701589084776572    
     2.504524406360583        0.2676771693607057    
     2.516565389083471        0.2652051017828141    
     2.528606371806358        0.2627430975475643    
     2.540647354529246        0.2602915302815211    
     2.552688337252133        0.2578507560310377    
     2.564729319975021        0.2554211138267821    
     2.576770302697908        0.2530029262385131    
     2.588811285420795        0.2505964999220269    
     2.600852268143683        0.2482021261483094    
     2.612893250866570        0.2458200812652860    
     2.624934233589458        0.2434506272247328    
     2.636975216312345        0.2410940120708297    
     2.649016199035232        0.2387504703479163    
     2.661057181758120        0.2364202235619384    
     2.673098164481007        0.2341034806626171    
     2.685139147203895        0.2318004384574247    
     2.697180129926782        0.2295112819679047    
     2.709221112649669        0.2272361848483256    
     2.721262095372557        0.2249753097842323    
     2.733303078095445        0.2227288088646109    
     2.745344060818332        0.2204968238824512    
     2.757385043541219        0.2182794867454595    
     2.769426026264107        0.2160769198070557    
     2.781467008986994        0.2138892361943599    
     2.793507991709882        0.2117165401149012    
     2.805548974432769        0.2095589271654025    
     2.817589957155656        0.2074164846379218    
     2.829630939878544        0.2052892918093974    
     2.841671922601431        0.2031774202242517    
     2.853712905324319        0.2010809339652057    
     2.865753888047206        0.1989998899188622    
     2.877794870770094        0.1969343380335797    
     2.889835853492981        0.1948843215672307    
     2.901876836215868        0.1928498773292276    
     2.913917818938756        0.1908310359152156    
     2.925958801661643        0.1888278219327750    
     2.937999784384531        0.1868402542223664    
     2.950040767107418        0.1848683460708234    
     2.962081749830305        0.1829121054170786    
     2.974122732553193        0.1809715350536409    
     2.986163715276080        0.1790466328207519    
     2.998204697998968        0.1771373917939216    
     3.010245680721855        0.1752438004674005    
     3.022286663444743        0.1733658429308207    
     3.034327646167630        0.1715034990400971    
     3.046368628890517        0.1696567445842951    
     3.058409611613405        0.1678255514463885    
     3.070450594336292        0.1660098877589300    
     3.082491577059180        0.1642097180555967    
     3.094532559782067        0.1624250034175252    
     3.106573542504954        0.1606557016150330    
     3.118614525227842        0.1589017672451376    
     3.130655507950729        0.1571631518646814    
     3.142696490673617        0.1554398041193026    
     3.154737473396504        0.1537316698681946    
     3.166778456119391        0.1520386923050194    
     3.178819438842279        0.1503608120752544    
     3.190860421565167        0.1486979673894131    
     3.202901404288054        0.1470500941325850    
     3.214942387010941        0.1454171259712187    
     3.226983369733829        0.1437989944559148    
     3.239024352456716        0.1421956291204178    
     3.251065335179604        0.1406069575787558    
     3.263106317902491        0.1390329056185265    
     3.275147300625378        0.1374733972903547    
     3.287188283348266        0.1359283549960258    
     3.299229266071153        0.1343976995730269    
     3.311270248794040        0.1328813503756637    
     3.323311231516928        0.1313792253545975    
     3.335352214239816        0.1298912411338050    
     3.347393196962703        0.1284173130828585    
     3.359434179685590        0.1269573553885438    
     3.371475162408478        0.1255112811283071    
     3.383516145131365        0.1240790023425829    
     3.395557127854253        0.1226604300770294    
     3.407598110577140        0.1212554744629959    
     3.419639093300027        0.1198640447131883    
     3.431680076022915        0.1184860493309776    
     3.443721058745802        0.1171213960604454    
     3.455762041468690        0.1157699920042176    
     3.467803024191577        0.1144317436152710    
     3.479844006914464        0.1131065566147299    
     3.491884989637352        0.1117943362768031    
     3.503925972360239        0.1104949873154820    
     3.515966955083127        0.1092084140601191    
     3.528007937806014        0.1079345205483318    
     3.540048920528902        0.1066732103997030    
     3.552089903251789        0.1054243868895486    
     3.564130885974676        0.1041879530106835    
     3.576171868697564        0.1029638115130860    
     3.588212851420451        0.1017518649463966    
     3.600253834143339        0.1005520156976872    
     3.612294816866226        0.9936416602651664E-01
     3.624335799589113        0.9818821809671142E-01
     3.636376782312001        0.9702407400482668E-01
     3.648417765034889        0.9587163580869787E-01
     3.660458747757776        0.9473080555786373E-01
     3.672499730480663        0.9360148532228141E-01
     3.684540713203551        0.9248357722045926E-01
     3.696581695926438        0.9137698344556405E-01
     3.708622678649326        0.9028160629037529E-01
     3.720663661372213        0.8919734817148241E-01
     3.732704644095100        0.8812411165255288E-01
     3.744745626817988        0.8706179946669698E-01
     3.756786609540875        0.8601031453796067E-01
     3.768827592263762        0.8496956000195706E-01
     3.780868574986650        0.8393943922566520E-01
     3.792909557709538        0.8291985582640686E-01
     3.804950540432425        0.8191071369005330E-01
     3.816991523155312        0.8091191698849039E-01
     3.829032505878200        0.7992337019632768E-01
     3.841073488601087        0.7894497810690519E-01
     3.853114471323975        0.7797664584761134E-01
     3.865155454046862        0.7701827889455022E-01
     3.877196436769749        0.7606978308653783E-01
     3.889237419492637        0.7513106463848622E-01
     3.901278402215524        0.7420203015417920E-01
     3.913319384938412        0.7328258663847304E-01
     3.925360367661299        0.7237264150890728E-01
     3.937401350384186        0.7147210260677783E-01
     3.949442333107074        0.7058087820767626E-01
     3.961483315829961        0.6969887703151738E-01
     3.973524298552849        0.6882600825205296E-01
     3.985565281275736        0.6796218150591123E-01
     3.997606263998624        0.6710730690116593E-01
     4.009647246721511        0.6626129502545501E-01
     4.021688229444399        0.6542405695365031E-01
     4.033729212167286        0.6459550425510792E-01
     4.045770194890173        0.6377554900050716E-01
     4.057811177613060        0.6296410376829104E-01
     4.069852160335948        0.6216108165071489E-01
     4.081893143058836        0.6136639625952624E-01
     4.093934125781723        0.6057996173128182E-01
     4.105975108504611        0.5980169273231657E-01
     4.118016091227497        0.5903150446336838E-01
     4.130057073950385        0.5826931266387955E-01
     4.142098056673273        0.5751503361597842E-01
     4.154139039396160        0.5676858414815805E-01
     4.166180022119048        0.5602988163865217E-01
     4.178221004841935        0.5529884401852758E-01
     4.190261987564822        0.5457538977449729E-01
     4.202302970287710        0.5385943795146714E-01
     4.214343953010597        0.5315090815481895E-01
     4.226384935733485        0.5244972055244417E-01
     4.238425918456372        0.5175579587653487E-01
     4.250466901179260        0.5106905542513928E-01
     4.262507883902146        0.5038942106349067E-01
     4.274548866625034        0.4971681522511505E-01
     4.286589849347922        0.4905116091272903E-01
     4.298630832070809        0.4839238169893206E-01
     4.310671814793697        0.4774040172669895E-01
     4.322712797516584        0.4709514570968389E-01
     4.334753780239471        0.4645653893233803E-01
     4.346794762962359        0.4582450724984879E-01
     4.358835745685246        0.4519897708790747E-01
     4.370876728408134        0.4457987544231072E-01
     4.382917711131021        0.4396712987840178E-01
     4.394958693853908        0.4336066853035641E-01
     4.406999676576796        0.4276042010031926E-01
     4.419040659299683        0.4216631385739800E-01
     4.431081642022571        0.4157827963651733E-01
     4.443122624745458        0.4099624783714044E-01
     4.455163607468346        0.4042014942185882E-01
     4.467204590191233        0.3984991591486171E-01
     4.479245572914120        0.3928547940028394E-01
     4.491286555637008        0.3872677252043944E-01
     4.503327538359895        0.3817372847394331E-01
     4.515368521082783        0.3762628101372673E-01
     4.527409503805671        0.3708436444495233E-01
     4.539450486528557        0.3654791362282848E-01
     4.551491469251445        0.3601686395033089E-01
     4.563532451974332        0.3549115137582943E-01
     4.575573434697220        0.3497071239063303E-01
     4.587614417420107        0.3445548402644798E-01
     4.599655400142995        0.3394540385275696E-01
     4.611696382865882        0.3344040997411991E-01
     4.623737365588769        0.3294044102740107E-01
     4.635778348311657        0.3244543617892819E-01
     4.647819331034544        0.3195533512158195E-01
     4.659860313757432        0.3147007807182244E-01
     4.671901296480319        0.3098960576664992E-01
     4.683942279203206        0.3051385946051207E-01
     4.695983261926094        0.3004278092215286E-01
     4.708024244648981        0.2957631243140776E-01
     4.720065227371869        0.2911439677594866E-01
     4.732106210094757        0.2865697724797701E-01
     4.744147192817644        0.2820399764087671E-01
     4.756188175540531        0.2775540224581984E-01
     4.768229158263418        0.2731113584833160E-01
     4.780270140986306        0.2687114372481477E-01
     4.792311123709194        0.2643537163903788E-01
     4.804352106432081        0.2600376583859022E-01
     4.816393089154968        0.2557627305130164E-01
     4.828434071877855        0.2515284048163370E-01
     4.840475054600743        0.2473341580703552E-01
     4.852516037323630        0.2431794717428024E-01
     4.864557020046518        0.2390638319577169E-01
     4.876598002769406        0.2349867294582824E-01
     4.888638985492292        0.2309476595694523E-01
     4.900679968215180        0.2269461221603173E-01
     4.912720950938067        0.2229816216063654E-01
     4.924761933660955        0.2190536667515176E-01
     4.936802916383843        0.2151617708700129E-01
     4.948843899106730        0.2113054516281646E-01
     4.960884881829617        0.2074842310459213E-01
     4.972925864552504        0.2036976354584040E-01
     4.984966847275392        0.1999451954772836E-01
     4.997007829998280        0.1962264459520700E-01
     5.009048812721167        0.1925409259313375E-01
     5.021089795444055        0.1888881786238285E-01
     5.033130778166941        0.1852677513595831E-01
     5.045171760889829        0.1816791955509679E-01
     5.057212743612717        0.1781220666536801E-01
     5.069253726335604        0.1745959241277368E-01
     5.081294709058492        0.1711003313983957E-01
     5.093335691781379        0.1676348558171565E-01
     5.105376674504266        0.1641990686227088E-01
     5.117417657227154        0.1607925449019006E-01
     5.129458639950041        0.1574148635507408E-01
     5.141499622672929        0.1540656072353768E-01
     5.153540605395816        0.1507443623531954E-01
     5.165581588118703        0.1474507189939054E-01
     5.177622570841590        0.1441842709006931E-01
     5.189663553564478        0.1409446154314417E-01
     5.201704536287366        0.1377313535199610E-01
     5.213745519010253        0.1345440896373750E-01
     5.225786501733141        0.1313824317535369E-01
     5.237827484456028        0.1282459912985307E-01
     5.249868467178915        0.1251343831242849E-01
     5.261909449901803        0.1220472254662158E-01
     5.273950432624690        0.1189841399050642E-01
     5.285991415347578        0.1159447513287753E-01
     5.298032398070465        0.1129286878945121E-01
     5.310073380793352        0.1099355809907798E-01
     5.322114363516240        0.1069650651996428E-01
     5.334155346239127        0.1040167782590993E-01
     5.346196328962015        0.1010903610255799E-01
     5.358237311684902        0.9818545743656391E-02
     5.370278294407790        0.9530171447333790E-02
     5.382319277130677        0.9243878212388498E-02
     5.394360259853564        0.8959631334589969E-02
     5.406401242576452        0.8677396402999507E-02
     5.418442225299339        0.8397139296301773E-02
     5.430483208022227        0.8118826179152046E-02
     5.442524190745114        0.7842423498610982E-02
     5.454565173468001        0.7567897994422995E-02
     5.466606156190889        0.7295217056423439E-02
     5.478647138913776        0.7024351354701887E-02
     5.490688121636664        0.6755282977160169E-02
     5.502729104359551        0.6488019344861325E-02
     5.514770087082439        0.6222608897887732E-02
     5.526811069805326        0.5959153808871019E-02
     5.538852052528213        0.5697817036776956E-02
     5.550893035251101        0.5438823320997071E-02
     5.562934017973988        0.5182455095465037E-02
     5.574975000696876        0.4929044798574102E-02
     5.587015983419763        0.4678965022520072E-02
     5.599056966142650        0.4432617686824817E-02
     5.611097948865538        0.4190423111097969E-02
     5.623138931588425        0.3952809582338552E-02
     5.635179914311313        0.3720203788867631E-02
     5.647220897034201        0.3493022327407223E-02
     5.659261879757087        0.3271664373132510E-02
     5.671302862479975        0.3056505523776704E-02
     5.683343845202862        0.2847892778061417E-02
     5.695384827925750        0.2646140577788136E-02
     5.707425810648638        0.2451527825707637E-02
     5.719466793371525        0.2264295783337989E-02
     5.731507776094412        0.2084646751047291E-02
     5.743548758817299        0.1912743434726962E-02
     5.755589741540187        0.1748708907749339E-02
     5.767630724263074        0.1592627082575288E-02
     5.779671706985962        0.1444543612642333E-02
     5.791712689708850        0.1304467151549490E-02
     5.803753672431736        0.1172370902705919E-02
     5.815794655154624        0.1048194398261673E-02
     5.827835637877511        0.9318454510511961E-03
     5.839876620600399        0.8232022271538421E-03
     5.851917603323287        0.7221153890995027E-03
     5.863958586046174        0.6284102600319067E-03
     5.875999568769061        0.5418889560644087E-03
     5.888040551491948        0.4623324253405096E-03
     5.900081534214836        0.3895023134649634E-03
     5.912122516937724        0.3231425367302665E-03
     5.924163499660611        0.2629803665408189E-03
     5.936204482383499        0.2087266622386486E-03
     5.948245465106385        0.1600745088908203E-03
     5.960286447829273        0.1166945493361720E-03
     5.972327430552161        0.7822245227677756E-04
     5.984368413275048        0.4422397210806219E-04
     5.996409395997936        0.1406427428038532E-04
     6.008450378720823         0.000000000000000    
  0  5  2  0  0.000000   #orbital l, n, z, is_polarized, population
 500    0.8453759470063868E-02     4.218425975561870     # npts, delta, cutoff
     0.000000000000000       -0.2857235692904095    
    0.8453759470063868E-02   -0.2856583829167219    
    0.1690751894012774E-01   -0.2854582881084936    
    0.2536127841019160E-01   -0.2851249397524954    
    0.3381503788025547E-01   -0.2846585543625256    
    0.4226879735031934E-01   -0.2840594340591403    
    0.5072255682038321E-01   -0.2833279664161865    
    0.5917631629044708E-01   -0.2824646239206576    
    0.6763007576051094E-01   -0.2814699632732404    
    0.7608383523057481E-01   -0.2803446245562122    