<preamble>

<basis_specs>
===============================================================================
Ta                   Z=  73    Mass=  180.95        Charge= 0.17977+309
Lmxo=2 Lmxkb= 3    BasisType=split      Semic=T
L=0  Nsemic=1  Cnfigmx=6
          i=1  nzeta=1  polorb=0  (5s)  (semicore shell)
            splnorm:   0.15000    
               vcte:    40.000    
               rinn:    2.6862    
               qcoe:    0.0000    
               qyuk:    0.0000    
               qwid:   0.10000E-01
                rcs:    2.9847    
            lambdas:    1.0000    
          i=2  nzeta=2  polorb=0  (6s)  (to be polarized non-perturbatively)
            splnorm:   0.15000    
               vcte:    40.000    
               rinn:    6.4823    
               qcoe:    0.0000    
               qyuk:    0.0000    
               qwid:   0.10000E-01
                rcs:    7.1954      5.1805    
            lambdas:    1.0000      1.0000    
L=1  Nsemic=1  Cnfigmx=6
          i=1  nzeta=1  polorb=0  (5p)  (semicore shell)
            splnorm:   0.15000    
               vcte:    40.000    
               rinn:    3.2177    
               qcoe:    0.0000    
               qyuk:    0.0000    
               qwid:   0.10000E-01
                rcs:    3.5753    
            lambdas:    1.0000    
          i=2  nzeta=1  polorb=0  (6p)  (non-perturbative polarization shell)
            splnorm:   0.15000    
               vcte:    40.000    
               rinn:    6.4823    
               qcoe:    0.0000    
               qyuk:    0.0000    
               qwid:   0.10000E-01
                rcs:    7.1954    
            lambdas:    1.0000    
L=2  Nsemic=0  Cnfigmx=5
          i=1  nzeta=2  polorb=0  (5d)
            splnorm:   0.15000    
               vcte:    40.000    
               rinn:    5.9000    
               qcoe:    0.0000    
               qyuk:    0.0000    
               qwid:   0.10000E-01
                rcs:    6.5489      4.4263    
            lambdas:    1.0000      1.0000    
-------------------------------------------------------------------------------
L=0  Nkbl=2  erefs: 0.17977+309 0.17977+309
L=1  Nkbl=2  erefs: 0.17977+309 0.17977+309
L=2  Nkbl=1  erefs: 0.17977+309
L=3  Nkbl=1  erefs: 0.17977+309
===============================================================================
</basis_specs>

<pseudopotential_header>
 Ta pb nrl pcec
 ONCVPSP-3.2017-10-31Hamann's oncvpsp                        
 5s 2.00  r= 1.71/5p 6.00  r= 1.71/5d 3.00  r= 1.71/5f 0.00  r= 2.25/   5s:5p:5d:6s:
</pseudopotential_header>
</preamble>
Ta                            # Symbol
Ta                            # Label
   73                         # Atomic number
     13.0000000000                             # Valence charge
     180.950000000        # Mass 
     173.563781818        # Self energy 
   2   7                      # Lmax for basis, no. of nl orbitals 
   3   8                      # Lmax for projectors, no. of nl KB projectors
# PAOs:__________________________
  0  5  1  0  2.000000   #orbital l, n, z, is_polarized, population
 500    0.5981277232514739E-02     2.984657339024855     # npts, delta, cutoff
     0.000000000000000        0.9470838258932738    
    0.5981277232514739E-02    0.9471170367358119    
    0.1196255446502948E-01    0.9472780447758695    
    0.1794383169754422E-01    0.9475462837943530    
    0.2392510893005896E-01    0.9479215494262270    
    0.2990638616257370E-01    0.9484035660309428    
    0.3588766339508843E-01    0.9489919811515605    
    0.4186894062760318E-01    0.9496863649258305    
    0.4785021786011791E-01    0.9504862101604200    
    0.5383149509263265E-01    0.9513909325916149    
    0.5981277232514740E-01    0.9523998712370427    
    0.6579404955766213E-01    0.9535122888122618    
    0.7177532679017687E-01    0.9547273722033435    
    0.7775660402269161E-01    0.9560442329918956    
    0.8373788125520636E-01    0.9574619080308620    
    0.8971915848772109E-01    0.9589793600701442    
    0.9570043572023583E-01    0.9605954784314344    
    0.1016817129527506        0.9623090797317432    
    0.1076629901852653        0.9641189086551909    
    0.1136442674177801        0.9660236387726163    
    0.1196255446502948        0.9680218734085814    
    0.1256068218828095        0.9701121465553039    
    0.1315880991153243        0.9722929238330656    
    0.1375693763478390        0.9745626034965840    
    0.1435506535803537        0.9769195174868347    
    0.1495319308128685        0.9793619325277754    
    0.1555132080453832        0.9818880512673939    
    0.1614944852778980        0.9844960134624611    
    0.1674757625104127        0.9871838972063715    
    0.1734570397429274        0.9899497201993845    
    0.1794383169754422        0.9927914410605710    
    0.1854195942079569        0.9957069606807376    
    0.1914008714404717        0.9986941236155517    
    0.1973821486729864         1.001750719518083    
    0.2033634259055011         1.004874484609918    
    0.2093447031380159         1.008063103189984    
    0.2153259803705306         1.011314209180197    
    0.2213072576030453         1.014625387706970    
    0.2272885348355601         1.017994176717658    
    0.2332698120680748         1.021418068630890    
    0.2392510893005896         1.024894512019790    
    0.2452323665331043         1.028420913326999    
    0.2512136437656191         1.031994638610393    
    0.2571949209981338         1.035613015318361    
    0.2631761982306485         1.039273334093480    
    0.2691574754631633         1.042972850603358    
    0.2751387526956780         1.046708787397430    
    0.2811200299281927         1.050478335788412    
    0.2871013071607075         1.054278657757130    
    0.2930825843932222         1.058106887879372    
    0.2990638616257369         1.061960135273392    
    0.3050451388582517         1.065835485566687    
    0.3110264160907664         1.069730002880594    
    0.3170076933232812         1.073640731831273    
    0.3229889705557960         1.077564699545571    
    0.3289702477883107         1.081498917690273    
    0.3349515250208254         1.085440384513186    
    0.3409328022533402         1.089386086894506    
    0.3469140794858549         1.093333002406883    
    0.3528953567183696         1.097278101382562    
    0.3588766339508844         1.101218348985999    
    0.3648579111833991         1.105150707290274    
    0.3708391884159138         1.109072137355667    
    0.3768204656484286         1.112979601308692    
    0.3828017428809433         1.116870064419923    
    0.3887830201134581         1.120740497178872    
    0.3947642973459728         1.124587877364234    
    0.4007455745784875         1.128409192107765    
    0.4067268518110023         1.132201439950049    
    0.4127081290435170         1.135961632886435    
    0.4186894062760317         1.139686798401405    
    0.4246706835085465         1.143373981489620    
    0.4306519607410612         1.147020246661926    
    0.4366332379735759         1.150622679934579    
    0.4426145152060907         1.154178390799964    
    0.4485957924386055         1.157684514177095    
    0.4545770696711202         1.161138212340178    
    0.4605583469036350         1.164536676823564    
    0.4665396241361497         1.167877130301396    
    0.4725209013686644         1.171156828440304    
    0.4785021786011792         1.174373061723490    
    0.4844834558336939         1.177523157244622    
    0.4904647330662086         1.180604480469895    
    0.4964460102987234         1.183614436966749    
    0.5024272875312381         1.186550474097652    
    0.5084085647637528         1.189410082677512    
    0.5143898419962676         1.192190798593170    
    0.5203711192287823         1.194890204383615    
    0.5263523964612971         1.197505930779478    
    0.5323336736938118         1.200035658200477    
    0.5383149509263265         1.202477118209476    
    0.5442962281588413         1.204828094921935    
    0.5502775053913560         1.207086426369474    
    0.5562587826238707         1.209250005816437    
    0.5622400598563855         1.211316783028298    
    0.5682213370889002         1.213284765490851    
    0.5742026143214150         1.215152019579181    
    0.5801838915539297         1.216916671675440    
    0.5861651687864444         1.218576909234536    
    0.5921464460189592         1.220130981796900    
    0.5981277232514739         1.221577201947538    
    0.6041090004839886         1.222913946220641    
    0.6100902777165034         1.224139655949115    
    0.6160715549490181         1.225252838058412    
    0.6220528321815328         1.226252065804150    
    0.6280341094140476         1.227135979453037    
    0.6340153866465623         1.227903286906723    
    0.6399966638790772         1.228552764268223    
    0.6459779411115919         1.229083256350652    
    0.6519592183441066         1.229493677128083    
    0.6579404955766214         1.229783010128387    
    0.6639217728091361         1.229950308767979    
    0.6699030500416508         1.229994696628498    
    0.6758843272741656         1.229915367675483    
    0.6818656045066803         1.229711586419169    
    0.6878468817391951         1.229382688017627    
    0.6938281589717098         1.228928078322517    
    0.6998094362042245         1.228347233867787    
    0.7057907134367393         1.227639701801722    
    0.7117719906692540         1.226805099762808    
    0.7177532679017687         1.225843115699959    
    0.7237345451342835         1.224753507637679    
    0.7297158223667982         1.223536103386829    
    0.7356970995993130         1.222190800201705    
    0.7416783768318277         1.220717564384198    
    0.7476596540643424         1.219116430835895    
    0.7536409312968572         1.217387502558966    
    0.7596222085293719         1.215530950106806    
    0.7656034857618866         1.213547010985409    
    0.7715847629944014         1.211435989006534    
    0.7775660402269161         1.209198253593739    
    0.7835473174594308         1.206834239042429    
    0.7895285946919456         1.204344443735083    
    0.7955098719244603         1.201729429312917    
    0.8014911491569751         1.198989819805216    
    0.8074724263894898         1.196126300717650    
    0.8134537036220045         1.193139618080916    
    0.8194349808545193         1.190030577461059    
    0.8254162580870340         1.186800042932890    
    0.8313975353195487         1.183448936017915    
    0.8373788125520635         1.179978234588251    
    0.8433600897845782         1.176388971737978    
    0.8493413670170930         1.172682234623442    
    0.8553226442496077         1.168859163274022    
    0.8613039214821224         1.164920949374904    
    0.8672851987146372         1.160868838654495    
    0.8732664759471519         1.156704134303035    
    0.8792477531796666         1.152428159643022    
    0.8852290304121814         1.148042300230783    
    0.8912103076446961         1.143547986902938    
    0.8971915848772110         1.138946694347406    
    0.9031728621097257         1.134239939733778    
    0.9091541393422404         1.129429281328222    
    0.9151354165747552         1.124516317094421    
    0.9211166938072699         1.119502683282132    
    0.9270979710397846         1.114390053004877    
    0.9330792482722994         1.109180134808321    
    0.9390605255048141         1.103874671230805    
    0.9450418027373289         1.098475437357560    
    0.9510230799698436         1.092984239370041    
    0.9570043572023583         1.087402913091863    
    0.9629856344348731         1.081733322532716    
    0.9689669116673878         1.075977358431707    
    0.9749481888999025         1.070136936801467    
    0.9809294661324173         1.064213997474378    
    0.9869107433649320         1.058210502652222    
    0.9928920205974467         1.052128435460543    
    0.9988732978299615         1.045969798508969    
     1.004854575062476         1.039736612458698    
     1.010835852294991         1.033430914598289    
     1.016817129527506         1.027054757428967    
     1.022798406760020         1.020610207260537    
     1.028779683992535         1.014099342818906    
     1.034760961225050         1.007524253866225    
     1.040742238457565         1.000887039834731    
     1.046723515690079        0.9941898084751933    
     1.052704792922594        0.9874346745208378    
     1.058686070155109        0.9806237583675889    
     1.064667347387624        0.9737591847714884    
     1.070648624620138        0.9668430815640667    
     1.076629901852653        0.9598775783863671    
     1.082611179085168        0.9528648054423542    
     1.088592456317683        0.9458068922723087    
     1.094573733550197        0.9387059665468581    
     1.100555010782712        0.9315641528821461    
     1.106536288015227        0.9243835716767546    
     1.112517565247741        0.9171663379707655    
     1.118498842480256        0.9099145603274740    
     1.124480119712771        0.9026303397381036    
     1.130461396945286        0.8953157685499198    
     1.136442674177800        0.8879729294180485    
     1.142423951410315        0.8806038942812824    
     1.148405228642830        0.8732107233621529    
     1.154386505875345        0.8657954641914218    
     1.160367783107859        0.8583601506572555    
     1.166349060340374        0.8509068020791209    
     1.172330337572889        0.8434374223066182    
     1.178311614805404        0.8359539988432434    
     1.184292892037918        0.8284585019951772    
     1.190274169270433        0.8209528840451367    
     1.196255446502948        0.8134390784512096    
     1.202236723735463        0.8059189990707143    
     1.208218000967977        0.7983945394089241    
     1.214199278200492        0.7908675718926993    
     1.220180555433007        0.7833399471688284    
     1.226161832665521        0.7758134934269564    
     1.232143109898036        0.7682900157469733    
     1.238124387130551        0.7607712954706403    
     1.244105664363066        0.7532590895973482    
     1.250086941595580        0.7457551302037291    
     1.256068218828095        0.7382611238869252    
     1.262049496060610        0.7307787512312900    
     1.268030773293125        0.7233096662982305    
     1.274012050525639        0.7158554961390076    
     1.279993327758154        0.7084178403301563    
     1.285974604990669        0.7009982705312771    
     1.291955882223184        0.6935983300648868    
     1.297937159455699        0.6862195335180578    
     1.303918436688213        0.6788633663655402    
     1.309899713920728        0.6715312846140603    
     1.315880991153243        0.6642247144674958    
     1.321862268385757        0.6569450520125800    
     1.327843545618272        0.6496936629248991    
     1.333824822850787        0.6424718821947678    
     1.339806100083302        0.6352810138727324    
     1.345787377315816        0.6281223308343868    
     1.351768654548331        0.6209970745641676    
     1.357749931780846        0.6139064549578472    
     1.363731209013361        0.6068516501433953    
     1.369712486245875        0.5998338063198743    
     1.375693763478390        0.5928540376141445    
     1.381675040710905        0.5859134259550227    
     1.387656317943420        0.5790130209646073    
     1.393637595175934        0.5721538398665675    
     1.399618872408449        0.5653368674109596    
     1.405600149640964        0.5585630558154315    
     1.411581426873479        0.5518333247225391    
     1.417562704105993        0.5451485611727753    
     1.423543981338508        0.5385096195932301    
     1.429525258571023        0.5319173218015533    
     1.435506535803537        0.5253724570249169    
     1.441487813036052        0.5188757819338962    
     1.447469090268567        0.5124280206908872    
     1.453450367501082        0.5060298650128640    
     1.459431644733596        0.4996819742483635    
     1.465412921966111        0.4933849754683524    
     1.471394199198626        0.4871394635708227    
     1.477375476431141        0.4809460013989897    
     1.483356753663655        0.4748051198727446    
     1.489338030896170        0.4687173181332425    
     1.495319308128685        0.4626830637005395    
     1.501300585361200        0.4567027926438953    
     1.507281862593714        0.4507769097647077    
     1.513263139826229        0.4449057887919192    
     1.519244417058744        0.4390897725895869    
     1.525225694291259        0.4333291733765428    
     1.531206971523773        0.4276242729580361    
     1.537188248756288        0.4219753229690186    
     1.543169525988803        0.4163825451290451    
     1.549150803221317        0.4108461315086320    
     1.555132080453832        0.4053662448067961    
     1.561113357686347        0.3999430186397002    
     1.567094634918862        0.3945765578402595    
     1.573075912151376        0.3892669387684670    
     1.579057189383891        0.3840142096323031    
     1.585038466616406        0.3788183908191186    
     1.591019743848921        0.3736794752372397    
     1.597001021081435        0.3685974286676344    
     1.602982298313950        0.3635721901255367    
     1.608963575546465        0.3586036722317774    
     1.614944852778980        0.3536917615936446    
     1.620926130011494        0.3488363191951136    
     1.626907407244009        0.3440371807962824    
     1.632888684476524        0.3392941573417784    
     1.638869961709039        0.3346070353780129    
     1.644851238941553        0.3299755774791346    
     1.650832516174068        0.3253995226806071    
     1.656813793406583        0.3208785869065889    
     1.662795070639097        0.3164124633305724    
     1.668776347871612        0.3120008229641151    
     1.674757625104127        0.3076433152880419    
     1.680738902336642        0.3033395690084090    
     1.686720179569156        0.2990891922758026    
     1.692701456801671        0.2948917720922068    
     1.698682734034186        0.2907468743299600    
     1.704664011266701        0.2866540442853399    
     1.710645288499215        0.2826128096450093    
     1.716626565731730        0.2786226839017719    
     1.722607842964245        0.2746831699248782    
     1.728589120196760        0.2707937637331119    
     1.734570397429274        0.2669539579879230    
     1.740551674661789        0.2631632450924766    
     1.746532951894304        0.2594211195821393    
     1.752514229126819        0.2557270777985539    
     1.758495506359333        0.2520806176629736    
     1.764476783591848        0.2484812377031347    
     1.770458060824363        0.2449284371748967    
     1.776439338056877        0.2414217164946404    
     1.782420615289392        0.2379605775151673    
     1.788401892521907        0.2345445238203542    
     1.794383169754422        0.2311730607816266    
     1.800364446986937        0.2278456956714662    
     1.806345724219451        0.2245619377923060    
     1.812327001451966        0.2213212985970650    
     1.818308278684481        0.2181232918044279    
     1.824289555916996        0.2149674335091500    
     1.830270833149510        0.2118532422848249    
     1.836252110382025        0.2087802392831611    
     1.842233387614540        0.2057479483265638    
     1.848214664847055        0.2027558959957660    
     1.854195942079569        0.1998036117124991    
     1.860177219312084        0.1968906278174412    
     1.866158496544599        0.1940164796434999    
     1.872139773777113        0.1911807055844711    
     1.878121051009628        0.1883828471595726    
     1.884102328242143        0.1856224490737710    
     1.890083605474658        0.1828990592741085    
     1.896064882707172        0.1802122290019627    
     1.902046159939687        0.1775615128419228    
     1.908027437172202        0.1749464687669018    
     1.914008714404717        0.1723666581798423    
     1.919989991637231        0.1698216459519376    
     1.925971268869746        0.1673110004579822    
     1.931952546102261        0.1648342936084496    
     1.937933823334776        0.1623911008786256    
     1.943915100567290        0.1599810013348516    
     1.949896377799805        0.1576035776582403    
     1.955877655032320        0.1552584161656354    
     1.961858932264835        0.1529451068280075    
     1.967840209497349        0.1506632432864694    
     1.973821486729864        0.1484124228660866    
     1.979802763962379        0.1461922465873736    
     1.985784041194893        0.1440023191755707    
     1.991765318427408        0.1418422490679764    
     1.997746595659923        0.1397116484193633    
     2.003727872892437        0.1376101331054649    
     2.009709150124952        0.1355373227245602    
     2.015690427357467        0.1334928405974599    
     2.021671704589982        0.1314763137658677    
     2.027652981822496        0.1294873729891239    
     2.033634259055011        0.1275256527393461    
     2.039615536287526        0.1255907911952469    
     2.045596813520041        0.1236824302345975    
     2.051578090752556        0.1218002154253399    
     2.057559367985070        0.1199437960153750    
     2.063540645217585        0.1181128249212233    
     2.069521922450100        0.1163069587156172    
     2.075503199682615        0.1145258576139390    
     2.081484476915129        0.1127691854596054    
     2.087465754147644        0.1110366097084634    
     2.093447031380159        0.1093278014123851    
     2.099428308612674        0.1076424352018716    
     2.105409585845188        0.1059801892678472    
     2.111390863077703        0.1043407453425670    
     2.117372140310218        0.1027237886799704    
     2.123353417542733        0.1011290080351821    
     2.129334694775247        0.9955609564339934E-01
     2.135315972007762        0.9800474719801719E-01
     2.141297249240277        0.9647466182836179E-01
     2.147278526472792        0.9496554207672850E-01
     2.153259803705306        0.9347709387494241E-01
     2.159241080937821        0.9200902652032515E-01
     2.165222358170336        0.9056105265132106E-01
     2.171203635402851        0.8913288822263529E-01
     2.177184912635365        0.8772425247996612E-01
     2.183166189867880        0.8633486793432894E-01
     2.189147467100395        0.8496446033604160E-01
     2.195128744332909        0.8361275864842302E-01
     2.201110021565424        0.8227949502114411E-01
     2.207091298797939        0.8096440476331460E-01
     2.213072576030453        0.7966722631626649E-01
     2.219053853262968        0.7838770122618058E-01
     2.225035130495483        0.7712557411644602E-01
     2.231016407727998        0.7588059265983929E-01
     2.236997684960512        0.7465250755050333E-01
     2.242978962193027        0.7344107247579727E-01
     2.248960239425542        0.7224604408799772E-01
     2.254941516658057        0.7106718197586970E-01
     2.260922793890571        0.6990424863613391E-01
     2.266904071123086        0.6875700944483652E-01
     2.272885348355601        0.6762523262864950E-01
     2.278866625588116        0.6650868923610223E-01
     2.284847902820630        0.6540715310876048E-01
     2.290829180053145        0.6432040085238680E-01
     2.296810457285660        0.6324821180805512E-01
     2.302791734518175        0.6219036802325893E-01
     2.308773011750689        0.6114665422302274E-01
     2.314754288983204        0.6011685778101627E-01
     2.320735566215719        0.5910076869072962E-01
     2.326716843448234        0.5809817953660893E-01
     2.332698120680748        0.5710888546528253E-01
     2.338679397913263        0.5613268415681166E-01
     2.344660675145778        0.5516937579603513E-01
     2.350641952378293        0.5421876304396209E-01
     2.356623229610807        0.5328065100920771E-01
     2.362604506843322        0.5235484721955013E-01
     2.368585784075837        0.5144116159354731E-01
     2.374567061308352        0.5053940641232821E-01
     2.380548338540866        0.4964939629138245E-01
     2.386529615773381        0.4877094815250602E-01
     2.392510893005896        0.4790388119586503E-01
     2.398492170238411        0.4704801687216236E-01
     2.404473447470925        0.4620317885501855E-01
     2.410454724703440        0.4536919301333776E-01
     2.416436001935955        0.4454588738390471E-01
     2.422417279168469        0.4373309214409540E-01
     2.428398556400984        0.4293063958474577E-01
     2.434379833633499        0.4213836408322120E-01
     2.440361110866013        0.4135610207650844E-01
     2.446342388098528        0.4058369203456538E-01
     2.452323665331043        0.3982097443379240E-01
     2.458304942563558        0.3906779173070637E-01
     2.464286219796072        0.3832398833578111E-01
     2.470267497028587        0.3758941058737907E-01
     2.476248774261102        0.3686390672592972E-01
     2.482230051493617        0.3614732686824487E-01
     2.488211328726131        0.3543952298207147E-01
     2.494192605958646        0.3474034886078527E-01
     2.500173883191161        0.3404966009821598E-01
     2.506155160423676        0.3336731406371842E-01
     2.512136437656190        0.3269316987739396E-01
     2.518117714888705        0.3202708838555694E-01
     2.524098992121220        0.3136893213634374E-01
     2.530080269353735        0.3071856535547313E-01
     2.536061546586249        0.3007585392225241E-01
     2.542042823818764        0.2944066534574026E-01
     2.548024101051279        0.2881286874115175E-01
     2.554005378283794        0.2819233480642752E-01
     2.559986655516309        0.2757893579894475E-01
     2.565967932748823        0.2697254551247885E-01
     2.571949209981338        0.2637303925433306E-01
     2.577930487213853        0.2578029382268605E-01
     2.583911764446368        0.2519418748414661E-01
     2.589893041678882        0.2461459995141544E-01
     2.595874318911397        0.2404141236121426E-01
     2.601855596143912        0.2347450725238434E-01
     2.607836873376427        0.2291376854417605E-01
     2.613818150608941        0.2235908151478715E-01
     2.619799427841456        0.2181033277997479E-01
     2.625780705073971        0.2126741027194404E-01
     2.631761982306486        0.2073020321840298E-01
     2.637743259539000        0.2019860212179461E-01
     2.643724536771515        0.1967249873878582E-01
     2.649705814004029        0.1915178605983253E-01
     2.655687091236544        0.1863635828900112E-01
     2.661668368469059        0.1812611082396108E-01
     2.667649645701574        0.1762094023614790E-01
     2.673630922934088        0.1712074425115934E-01
     2.679612200166603        0.1662542172926834E-01
     2.685593477399118        0.1613487264614229E-01
     2.691574754631633        0.1564899807374440E-01
     2.697556031864147        0.1516770016140611E-01
     2.703537309096662        0.1469088211715553E-01
     2.709518586329177        0.1421844820210447E-01
     2.715499863561692        0.1375030404947557E-01
     2.721481140794206        0.1328635911768210E-01
     2.727462418026721        0.1282653435621639E-01
     2.733443695259236        0.1237077544601511E-01
     2.739424972491751        0.1191906796168951E-01
     2.745406249724265        0.1147145003852829E-01
     2.751387526956780        0.1102801997899537E-01
     2.757368804189295        0.1058893833932733E-01
     2.763350081421810        0.1015442532422255E-01
     2.769331358654324        0.9724754793621148E-02
     2.775312635886839        0.9300246171630163E-02
     2.781293913119354        0.8881255320961987E-02
     2.787275190351869        0.8468165169754648E-02
     2.793256467584383        0.8061376626705228E-02
     2.799237744816898        0.7661300120446216E-02
     2.805219022049413        0.7268347951337333E-02
     2.811200299281928        0.6882927540435417E-02
     2.817181576514442        0.6505435591424974E-02
     2.823162853746957        0.6136253137397537E-02
     2.829144130979472        0.5775741418231082E-02
     2.835125408211987        0.5424238520253100E-02
     2.841106685444501        0.5082056703800507E-02
     2.847087962677016        0.4749480343316685E-02
     2.853069239909531        0.4426764406763329E-02
     2.859050517142045        0.4114133404981534E-02
     2.865031794374560        0.3811780746311917E-02
     2.871013071607075        0.3519868436612903E-02
     2.876994348839589        0.3238527069383393E-02
     2.882975626072104        0.2967856054604467E-02
     2.888956903304619        0.2707924037878473E-02
     2.894938180537134        0.2458769463033372E-02
     2.900919457769648        0.2220401231045208E-02
     2.906900735002163        0.1992799404990481E-02
     2.912882012234678        0.1775915903294961E-02
     2.918863289467193        0.1569675109021909E-02
     2.924844566699707        0.1373974296378616E-02
     2.930825843932222        0.1188683727195570E-02
     2.936807121164737        0.1013646179937592E-02
     2.942788398397252        0.8486754984612579E-03
     2.948769675629766        0.6935533855811029E-03
     2.954750952862281        0.5480228554153745E-03
     2.960732230094796        0.4117747354260123E-03
     2.966713507327311        0.2844177553993251E-03
     2.972694784559825        0.1654021489795577E-03
     2.978676061792340        0.5374985247070857E-04
     2.984657339024855         0.000000000000000    
  0  6  1  0  2.000000   #orbital l, n, z, is_polarized, population
 500    0.1441962583665652E-01     7.195393292491602     # npts, delta, cutoff
     0.000000000000000        0.5961428580889321    
    0.1441962583665652E-01    0.5962254234011201    