<preamble>

<basis_specs>
===============================================================================
Te                   Z=  52    Mass=  127.60        Charge= 0.17977+309
Lmxo=2 Lmxkb= 3    BasisType=split      Semic=T
L=0  Nsemic=0  Cnfigmx=5
          i=1  nzeta=2  polorb=0  (5s)
            splnorm:   0.15000    
               vcte:    40.000    
               rinn:    4.7568    
               qcoe:    0.0000    
               qyuk:    0.0000    
               qwid:   0.10000E-01
                rcs:    5.2854      3.6660    
            lambdas:    1.0000      1.0000    
L=1  Nsemic=0  Cnfigmx=5
          i=1  nzeta=2  polorb=0  (5p)  (to be polarized non-perturbatively)
            splnorm:   0.15000    
               vcte:    40.000    
               rinn:    6.0921    
               qcoe:    0.0000    
               qyuk:    0.0000    
               qwid:   0.10000E-01
                rcs:    6.7622      4.7623    
            lambdas:    1.0000      1.0000    
L=2  Nsemic=1  Cnfigmx=5
          i=1  nzeta=1  polorb=0  (4d)  (semicore shell)
            splnorm:   0.15000    
               vcte:    40.000    
               rinn:    2.7600    
               qcoe:    0.0000    
               qyuk:    0.0000    
               qwid:   0.10000E-01
                rcs:    3.0635    
            lambdas:    1.0000    
          i=2  nzeta=1  polorb=0  (5d)  (non-perturbative polarization shell)
            splnorm:   0.15000    
               vcte:    40.000    
               rinn:    6.0921    
               qcoe:    0.0000    
               qyuk:    0.0000    
               qwid:   0.10000E-01
                rcs:    6.7622    
            lambdas:    1.0000    
-------------------------------------------------------------------------------
L=0  Nkbl=1  erefs: 0.17977+309
L=1  Nkbl=1  erefs: 0.17977+309
L=2  Nkbl=2  erefs: 0.17977+309 0.17977+309
L=3  Nkbl=1  erefs: 0.17977+309
===============================================================================
</basis_specs>

<pseudopotential_header>
 Te pb nrl pcec
 ONCVPSP-4.2023-03-20Hamann's oncvpsp                        
 5s 2.00  r= 2.25/5p 4.00  r= 1.91/4d10.00  r= 1.81/4f 0.00  r= 2.00/   4d:5s:5p:
</pseudopotential_header>
</preamble>
Te                            # Symbol
Te                            # Label
   52                         # Atomic number
     16.0000000000                             # Valence charge
     127.600000000        # Mass 
     228.581615473        # Self energy 
   2   6                      # Lmax for basis, no. of nl orbitals 
   3   9                      # Lmax for projectors, no. of nl KB projectors
# PAOs:__________________________
  0  5  1  0  2.000000   #orbital l, n, z, is_polarized, population
 500    0.1059189158904184E-01     5.285353902931877     # npts, delta, cutoff
     0.000000000000000        0.1998532242892510E-01
    0.1059189158904184E-01    0.2005025009471639E-01
    0.2118378317808367E-01    0.2024660358054299E-01
    0.3177567476712551E-01    0.2057377268492610E-01
    0.4236756635616735E-01    0.2103162649555088E-01
    0.5295945794520918E-01    0.2161998142742897E-01
    0.6355134953425103E-01    0.2233860068446379E-01
    0.7414324112329286E-01    0.2318719366898106E-01
    0.8473513271233470E-01    0.2416541528084600E-01
    0.9532702430137653E-01    0.2527286510474465E-01
    0.1059189158904184        0.2650908649082205E-01
    0.1165108074794602        0.2787356553588154E-01
    0.1271026990685021        0.2936572997355314E-01
    0.1376945906575439        0.3098494798280469E-01
    0.1482864822465857        0.3273052692501587E-01
    0.1588783738356276        0.3460171202059066E-01
    0.1694702654246694        0.3659768497675397E-01
    0.1800621570137112        0.3871756257876943E-01
    0.1906540486027531        0.4096039525731761E-01
    0.2012459401917949        0.4332516564519819E-01
    0.2118378317808367        0.4581078713686211E-01
    0.2224297233698786        0.4841610246453044E-01
    0.2330216149589204        0.5113988230483005E-01
    0.2436135065479622        0.5398082392996234E-01
    0.2542053981370041        0.5693754991741801E-01
    0.2647972897260459        0.6000860693216639E-01
    0.2753891813150878        0.6319246459507608E-01
    0.2859810729041296        0.6648751445106535E-01
    0.2965729644931714        0.6989206905014447E-01
    0.3071648560822133        0.7340436115408672E-01
    0.3177567476712551        0.7702254308096469E-01
    0.3283486392602969        0.8074468619921575E-01
    0.3389405308493388        0.8456878058223996E-01
    0.3495324224383806        0.8849273483382172E-01
    0.3601243140274225        0.9251437609387286E-01
    0.3707162056164643        0.9663145023314880E-01
    0.3813080972055061        0.1008416222446832    
    0.3918999887945480        0.1051424768387296    
    0.4024918803835898        0.1095315192469933    
    0.4130837719726316        0.1140061762408963    
    0.4236756635616735        0.1185637973675363    
    0.4342675551507153        0.1232016564058956    
    0.4448594467397571        0.1279169530447287    
    0.4554513383287990        0.1327068147824098    
    0.4660432299178408        0.1375682990478715    
    0.4766351215068826        0.1424983955406098    
    0.4872270130959245        0.1474940287865804    
    0.4978189046849663        0.1525520609056674    
    0.5084107962740082        0.1576692945852919    
    0.5190026878630500        0.1628424762536199    
    0.5295945794520919        0.1680682994447676    
    0.5401864710411337        0.1733434083473683    
    0.5507783626301755        0.1786644015268756    
    0.5613702542192174        0.1840278358110397    
    0.5719621458082592        0.1894302303270987    
    0.5825540373973010        0.1948680706784085    
    0.5931459289863429        0.2003378132474582    
    0.6037378205753847        0.2058358896115320    
    0.6143297121644266        0.2113587110566326    
    0.6249216037534684        0.2169026731747518    
    0.6355134953425102        0.2224641605290883    
    0.6461053869315521        0.2280395513714249    
    0.6566972785205939        0.2336252223955627    
    0.6672891701096357        0.2392175535104933    
    0.6778810616986776        0.2448129326168444    
    0.6884729532877194        0.2504077603700945    
    0.6990648448767612        0.2559984549140721    
    0.7096567364658031        0.2615814565683912    
    0.7202486280548449        0.2671532324536759    
    0.7308405196438867        0.2727102810387266    
    0.7414324112329286        0.2782491365941405    
    0.7520243028219704        0.2837663735373897    
    0.7626161944110122        0.2892586106548417    
    0.7732080860000541        0.2947225151868809    
    0.7837999775890959        0.3001548067629085    
    0.7943918691781378        0.3055522611737957    
    0.8049837607671796        0.3109117139701456    
    0.8155756523562214        0.3162300638756000    
    0.8261675439452633        0.3215042760053496    
    0.8367594355343051        0.3267313848809696    
    0.8473513271233469        0.3319084972337271    
    0.8579432187123888        0.3370327945895515    
    0.8685351103014306        0.3421015356299142    
    0.8791270018904724        0.3471120583240133    
    0.8897188934795143        0.3520617818287465    
    0.9003107850685561        0.3569482081540814    
    0.9109026766575979        0.3617689235926179    
    0.9214945682466398        0.3665215999132007    
    0.9320864598356816        0.3712039953196424    
    0.9426783514247234        0.3758139551766802    
    0.9532702430137653        0.3803494125064026    
    0.9638621346028071        0.3848083882594489    
    0.9744540261918490        0.3891889913663255    
    0.9850459177808908        0.3934894185751479    
    0.9956378093699326        0.3977079540831264    
     1.006229700958974        0.4018429689699508    
     1.016821592548016        0.4058929204421186    
     1.027413484137058        0.4098563508981143    
     1.038005375726100        0.4137318868247865    
     1.048597267315142        0.4175182375364620    
     1.059189158904184        0.4212141937682109    
     1.069781050493225        0.4248186261361039    
     1.080372942082267        0.4283304834766293    
     1.090964833671309        0.4317487910789436    
     1.101556725260351        0.4350726488231105    
     1.112148616849393        0.4383012292378918    
     1.122740508438435        0.4414337754922190    
     1.133332400027476        0.4444695993336616    
     1.143924291616518        0.4474080789879348    
     1.154516183205560        0.4502486570331983    
     1.165108074794602        0.4529908382622568    
     1.175699966383644        0.4556341875460665    
     1.186291857972686        0.4581783277113393    
     1.196883749561727        0.4606229374446291    
     1.207475641150769        0.4629677492347952    
     1.218067532739811        0.4652125473650552    
     1.228659424328853        0.4673571659656410    
     1.239251315917895        0.4694014871368415    
     1.249843207506937        0.4713454391518037    
     1.260435099095979        0.4731889947477120    
     1.271026990685020        0.4749321695127792    
     1.281618882274062        0.4765750203762323    
     1.292210773863104        0.4781176442068654    
     1.302802665452146        0.4795601765253052    
     1.313394557041188        0.4809027903341185    
     1.323986448630230        0.4821456950685333    
     1.334578340219271        0.4832891356701946    
     1.345170231808313        0.4843333917848391    
     1.355762123397355        0.4852787770840480    
     1.366354014986397        0.4861256387103231    
     1.376945906575439        0.4868743568435175    
     1.387537798164481        0.4875253443860386    
     1.398129689753522        0.4880790467630772    
     1.408721581342564        0.4885359418331733    
     1.419313472931606        0.4888965399040808    
     1.429905364520648        0.4891613838473490    
     1.440497256109690        0.4893310493048727    
     1.451089147698732        0.4894061449797109    
     1.461681039287773        0.4893873130027609    
     1.472272930876815        0.4892752293665115    
     1.482864822465857        0.4890706044162491    
     1.493456714054899        0.4887741833889691    
     1.504048605643941        0.4883867469894179    
     1.514640497232983        0.4879091119929708    
     1.525232388822024        0.4873421318640904    
     1.535824280411066        0.4866866973793720    
     1.546416172000108        0.4859437372441079    
     1.557008063589150        0.4851142186909977    
     1.567599955178192        0.4841991480496625    
     1.578191846767234        0.4831995712762187    
     1.588783738356276        0.4821165744316748    
     1.599375629945317        0.4809512840987453    
     1.609967521534359        0.4797048677265218    
     1.620559413123401        0.4783785338933382    
     1.631151304712443        0.4769735324781891    
     1.641743196301485        0.4754911547319290    
     1.652335087890527        0.4739327404159195    
     1.662926979479568        0.4722996623010058    
     1.673518871068610        0.4705933287033506    
     1.684110762657652        0.4688151947865054    
     1.694702654246694        0.4669667556707324    
     1.705294545835736        0.4650495457490878    
     1.715886437424778        0.4630651378623338    
     1.726478329013819        0.4610151423273632    
     1.737070220602861        0.4589012058172102    
     1.747662112191903        0.4567250100914734    
     1.758254003780945        0.4544882705772744    
     1.768845895369987        0.4521927348014663    
     1.779437786959029        0.4498401806761400    
     1.790029678548070        0.4474324146372232    
     1.800621570137112        0.4449712696329119    
     1.811213461726154        0.4424586030041362    
     1.821805353315196        0.4398962942634278    
     1.832397244904238        0.4372862426506232    
     1.842989136493280        0.4346303645547988    
     1.853581028082322        0.4319305909935376    
     1.864172919671363        0.4291888649095917    
     1.874764811260405        0.4264071382877422    
     1.885356702849447        0.4235873693123180    
     1.895948594438489        0.4207315193849133    
     1.906540486027531        0.4178415500978224    
     1.917132377616573        0.4149194201861106    
     1.927724269205614        0.4119670824467383    
     1.938316160794656        0.4089864805210974    
     1.948908052383698        0.4059795458090211    
     1.959499943972740        0.4029481943498615    
     1.970091835561782        0.3998943236716996    
     1.980683727150824        0.3968198097026326    
     1.991275618739865        0.3937265037210085    
     2.001867510328907        0.3906162293536584    
     2.012459401917949        0.3874907796451302    
     2.023051293506991        0.3843519142054727    
     2.033643185096033        0.3812013564503533    
     2.044235076685075        0.3780407909453562    
     2.054826968274116        0.3748718608658563    
     2.065418859863158        0.3716961655836943    
     2.076010751452200        0.3685152583910796    
     2.086602643041242        0.3653306443716544    
     2.097194534630284        0.3621437784280147    
     2.107786426219326        0.3589560634741501    
     2.118378317808367        0.3557688488006236    
     2.128970209397409        0.3525834286194658    
     2.139562100986451        0.3494010407949672    
     2.150153992575493        0.3462228657655581    
     2.160745884164535        0.3430500256611902    
     2.171337775753577        0.3398835836197351    
     2.181929667342618        0.3367245433048383    
     2.192521558931660        0.3335738486268073    
     2.203113450520702        0.3304323836672178    
     2.213705342109744        0.3273009728069411    
     2.224297233698786        0.3241803810401832    
     2.234889125287828        0.3210713145603158    
     2.245481016876870        0.3179744215931418    
     2.256072908465911        0.3148902922266323    
     2.266664800054953        0.3118194644251155    
     2.277256691643995        0.3087624385742209    
     2.287848583233037        0.3057196904534082    
     2.298440474822079        0.3026916735885484    
     2.309032366411120        0.2996788188183422    
     2.319624258000162        0.2966815353165217    
     2.330216149589204        0.2937002112796253    
     2.340808041178246        0.2907352145799638    
     2.351399932767288        0.2877868934225980    
     2.361991824356330        0.2848555769802709    
     2.372583715945372        0.2819415760109676    
     2.383175607534413        0.2790451834587514    
     2.393767499123455        0.2761666750378182    
     2.404359390712497        0.2733063098003694    
     2.414951282301539        0.2704643306887257    
     2.425543173890581        0.2676409650719106    
     2.436135065479622        0.2648364252672569    
     2.446726957068664        0.2620509090473483    
     2.457318848657706        0.2592846001326373    
     2.467910740246748        0.2565376686701144    
     2.478502631835790        0.2538102716983908    
     2.489094523424832        0.2511025535995315    
     2.499686415013874        0.2484146465379890    
     2.510278306602916        0.2457466708869203    
     2.520870198191957        0.2430987356422449    
     2.531462089780999        0.2404709388247586    
     2.542053981370041        0.2378633678706105    
     2.552645872959083        0.2352761000104181    
     2.563237764548124        0.2327092026373082    
     2.573829656137166        0.2301627336642449    
     2.584421547726208        0.2276367418708363    
     2.595013439315250        0.2251312672399177    
     2.605605330904292        0.2226463412841938    
     2.616197222493334        0.2201819873632195    
     2.626789114082376        0.2177382209909399    
     2.637381005671418        0.2153150501340166    
     2.647972897260459        0.2129124755012543    
     2.658564788849501        0.2105304908243162    
     2.669156680438543        0.2081690831299538    
     2.679748572027585        0.2058282330040095    
     2.690340463616626        0.2035079148473933    
     2.700932355205668        0.2012080971242532    
     2.711524246794710        0.1989287426025478    
     2.722116138383752        0.1966698085872279    
     2.732708029972794        0.1944312471462262    
     2.743299921561836        0.1922130053294664    
     2.753891813150878        0.1900150253810544    
     2.764483704739920        0.1878372449448518    
     2.775075596328962        0.1856795972636191    
     2.785667487918003        0.1835420113719067    
     2.796259379507045        0.1814244122828541    
     2.806851271096087        0.1793267211690695    
     2.817443162685129        0.1772488555377557    
     2.828035054274170        0.1751907294002578    
     2.838626945863212        0.1731522534361711    
     2.849218837452254        0.1711333351521439    
     2.859810729041296        0.1691338790355708    
     2.870402620630338        0.1671537867032963    
     2.880994512219380        0.1651929570454497    
     2.891586403808422        0.1632512863645863    
     2.902178295397464        0.1613286685102585    
     2.912770186986505        0.1594249950091125    
     2.923362078575547        0.1575401551906812    
     2.933953970164589        0.1556740363089978    
     2.944545861753631        0.1538265236601160    
     2.955137753342672        0.1519975006956824    
     2.965729644931714        0.1501868491326552    
     2.976321536520756        0.1483944490593081    
     2.986913428109798        0.1466201790376163    
     2.997505319698840        0.1448639162021117    
     3.008097211287882        0.1431255363553320    
     3.018689102876924        0.1414049140599638    
     3.029280994465966        0.1397019227277730    
     3.039872886055007        0.1380164347054096    
     3.050464777644049        0.1363483213571912    
     3.061056669233091        0.1346974531449537    
     3.071648560822133        0.1330636997050498    
     3.082240452411174        0.1314469299225894    
     3.092832344000216        0.1298470120029969    
     3.103424235589258        0.1282638135409742    
     3.114016127178300        0.1266972015869479    
     3.124608018767342        0.1251470427110696    
     3.135199910356384        0.1236132030648474    
     3.145791801945426        0.1220955484404842    
     3.156383693534468        0.1205939443279905    
     3.166975585123509        0.1191082559701415    
     3.177567476712551        0.1176383484153439    
     3.188159368301593        0.1161840865684827    
     3.198751259890635        0.1147453352397991    
     3.209343151479676        0.1133219591918600    
     3.219935043068718        0.1119138231847068    
     3.230526934657760        0.1105207920192173    
     3.241118826246802        0.1091427305787269    
     3.251710717835844        0.1077795038689774    
     3.262302609424886        0.1064309770564641    
     3.272894501013928        0.1050970155052051    
     3.283486392602970        0.1037774848119900    
     3.294078284192011        0.1024722508401648    
     3.304670175781053        0.1011811797519880    
     3.315262067370095        0.9990413803962006E-01
     3.325853958959137        0.9864099255477414E-01
     3.336445850548178        0.9739161053708467E-01
     3.347037742137220        0.9615585964122637E-01
     3.357629633726262        0.9493360796282775E-01
     3.368221525315304        0.9372472406321676E-01
     3.378813416904346        0.9252907699304320E-01
     3.389405308493388        0.9134653631480749E-01
     3.399997200082430        0.9017697212434121E-01
     3.410589091671472        0.8902025507125205E-01
     3.421180983260514        0.8787625637831108E-01
     3.431772874849555        0.8674484786043343E-01
     3.442364766438597        0.8562590194152146E-01
     3.452956658027639        0.8451929167090311E-01
     3.463548549616681        0.8342489074183651E-01
     3.474140441205722        0.8234257349889453E-01
     3.484732332794764        0.8127221496221412E-01
     3.495324224383806        0.8021369085481952E-01
     3.505916115972848        0.7916687757208056E-01
     3.516508007561890        0.7813165219297397E-01
     3.527099899150932        0.7710789257551656E-01
     3.537691790739974        0.7609547728980813E-01
     3.548283682329016        0.7509428562887087E-01
     3.558875573918057        0.7410419764700255E-01
     3.569467465507099        0.7312509415904210E-01
     3.580059357096141        0.7215685674551776E-01
     3.590651248685183        0.7119936776165246E-01
     3.601243140274224        0.7025251034442959E-01
     3.611835031863266        0.6931616841905404E-01
     3.622426923452308        0.6839022670497766E-01
     3.633018815041350        0.6747457072134783E-01
     3.643610706630392        0.6656908679201495E-01
     3.654202598219434        0.6567366205008913E-01
     3.664794489808476        0.6478818444205627E-01
     3.675386381397518        0.6391254273146829E-01
     3.685978272986559        0.6304662650222535E-01
     3.696570164575601        0.6219032616146374E-01
     3.707162056164643        0.6134353294206430E-01
     3.717753947753685        0.6050613890479365E-01
     3.728345839342726        0.5967803694009224E-01
     3.738937730931768        0.5885912076952231E-01
     3.749529622520810        0.5804928494688869E-01
     3.760121514109852        0.5724842485904372E-01
     3.770713405698894        0.5645643672638759E-01
     3.781305297287936        0.5567321760307594E-01
     3.791897188876978        0.5489866537694606E-01
     3.802489080466020        0.5413267876917038E-01
     3.813080972055061        0.5337515733364986E-01
     3.823672863644103        0.5262600145615596E-01
     3.834264755233145        0.5188511235322929E-01
     3.844856646822187        0.5115239207084681E-01
     3.855448538411228        0.5042774348286531E-01
     3.866040430000270        0.4971107028924812E-01
     3.876632321589312        0.4900227701408676E-01
     3.887224213178354        0.4830126900342251E-01
     3.897816104767396        0.4760795242287767E-01
     3.908407996356438        0.4692223425510259E-01
     3.918999887945480        0.4624402229704729E-01
     3.929591779534522        0.4557322515706341E-01
     3.940183671123563        0.4490975225184370E-01
     3.950775562712605        0.4425351380320611E-01
     3.961367454301647        0.4360442083472897E-01
     3.971959345890689        0.4296238516824204E-01
     3.982551237479730        0.4232731942018147E-01
     3.993143129068772        0.4169913699781246E-01
     4.003735020657814        0.4107775209532682E-01
     4.014326912246856        0.4046307968982015E-01
     4.024918803835898        0.3985503553715428E-01
     4.035510695424940        0.3925353616770894E-01
     4.046102587013982        0.3865849888202951E-01
     4.056694478603023        0.3806984174637339E-01
     4.067286370192066        0.3748748358816191E-01
     4.077878261781107        0.3691134399134088E-01
     4.088470153370150        0.3634134329165345E-01
     4.099062044959191        0.3577740257183138E-01
     4.109653936548233        0.3521944365670772E-01
     4.120245828137275        0.3466738910825421E-01
     4.130837719726316        0.3412116222054953E-01
     4.141429611315358        0.3358068701467826E-01
     4.152021502904400        0.3304588823356812E-01
     4.162613394493442        0.3251669133676714E-01
     4.173205286082484        0.3199302249516295E-01
     4.183797177671526        0.3147480858564983E-01
     4.194389069260567        0.3096197718574606E-01
     4.204980960849610        0.3045445656816191E-01
     4.215572852438651        0.2995217569532563E-01
     4.226164744027693        0.2945506421386715E-01
     4.236756635616735        0.2896305244906312E-01
     4.247348527205776        0.2847607139924705E-01
     4.257940418794819        0.2799405273018508E-01
     4.268532310383860        0.2751692876942118E-01
     4.279124201972902        0.2704463250059458E-01
     4.289716093561944        0.2657709755773092E-01
     4.300307985150986        0.2611425821951012E-01
     4.310899876740027        0.2565604940351215E-01
     4.321491768329070        0.2520240666044384E-01
     4.332083659918111        0.2475326616834907E-01
     4.342675551507154        0.2430856472680225E-01
     4.353267443096195        0.2386823975109030E-01
     4.363859334685237        0.2343222926638251E-01
     4.374451226274279        0.2300047190188984E-01
     4.385043117863320        0.2257290688501850E-01
     4.395635009452362        0.2214947403551540E-01
     4.406226901041404        0.2173011375961026E-01
     4.416818792630446        0.2131476704415450E-01
     4.427410684219488        0.2090337545075834E-01
     4.438002575808530        0.2049588110992905E-01
     4.448594467397571        0.2009222671520935E-01
     4.459186358986614        0.1969235551731978E-01
     4.469778250575655        0.1929621131830533E-01
     4.480370142164697        0.1890373846568644E-01
     4.490962033753739        0.1851488184661815E-01
     4.501553925342781        0.1812958688205590E-01
     4.512145816931823        0.1774779952093099E-01
     4.522737708520864        0.1736946623433644E-01
     4.533329600109906        0.1699453400972340E-01
     4.543921491698948        0.1662295034511083E-01
     4.554513383287990        0.1625466324330661E-01
     4.565105274877031        0.1588962120614453E-01
     4.575697166466074        0.1552777322873531E-01
     4.586289058055115        0.1516906879373379E-01
     4.596880949644158        0.1481345786562286E-01
     4.607472841233199        0.1446089088501462E-01
     4.618064732822241        0.1411131876297036E-01
     4.628656624411283        0.1376469287533850E-01
     4.639248516000325        0.1342096505711343E-01
     4.649840407589366        0.1308008759681368E-01
     4.660432299178408        0.1274201323088127E-01
     4.671024190767450        0.1240669513810288E-01
     4.681616082356492        0.1207408693405251E-01
     4.692207973945534        0.1174414266555747E-01
     4.702799865534575        0.1141681680518657E-01
     4.713391757123618        0.1109206424576329E-01
     4.723983648712659        0.1076984029490164E-01
     4.734575540301701        0.1045010066956745E-01
     4.745167431890743        0.1013280149066375E-01
     4.755759323479785        0.9817899277641928E-02
     4.766351215068827        0.9505350943138171E-02
     4.776943106657868        0.9195113787636036E-02
     4.787534998246910        0.8887145494226284E-02
     4.798126889835952        0.8581404137186912E-02
     4.808718781424994        0.8277848536933988E-02
     4.819310673014036        0.7976440884895696E-02
     4.829902564603078        0.7677154878204859E-02
     4.840494456192119        0.7379989658538671E-02
     4.851086347781162        0.7084985577420889E-02
     4.861678239370203        0.6792237058952937E-02
     4.872270130959245        0.6501899866044834E-02
     4.882862022548287        0.6214192351298399E-02
     4.893453914137329        0.5929391649761777E-02
     4.904045805726371        0.5647826268472003E-02
     4.914637697315412        0.5369866499280265E-02
     4.925229588904454        0.5095913826665225E-02
     4.935821480493496        0.4826390196288858E-02
     4.946413372082538        0.4561727733462407E-02
     4.957005263671579        0.4302359280109463E-02
     4.967597155260622        0.4048709955389549E-02
     4.978189046849663        0.3801189830179811E-02
     4.988780938438706        0.3560187728245570E-02
     4.999372830027747        0.3326066117196963E-02
     5.009964721616789        0.3099157022188619E-02
     5.020556613205831        0.2879758878677962E-02
     5.031148504794873        0.2668134232981373E-02
     5.041740396383914        0.2464508197706732E-02
     5.052332287972956        0.2269067571206461E-02
     5.062924179561998        0.2081960534482239E-02
     5.073516071151040        0.1903296844453201E-02
     5.084107962740082        0.1733148448489814E-02
     5.094699854329123        0.1571550451124664E-02
     5.105291745918166        0.1418502369552059E-02
     5.115883637507207        0.1273969619632850E-02
     5.126475529096249        0.1137885178374603E-02
     5.137067420685291        0.1010151371914234E-02
     5.147659312274333        0.8906417394062341E-03
     5.158251203863375        0.7792029220742058E-03
     5.168843095452416        0.6756565215464547E-03
     5.179434987041458        0.5798008596950072E-03
     5.190026878630500        0.4914125481278740E-03
     5.200618770219542        0.4102477280787627E-03
     5.211210661808583        0.3360427462159831E-03
     5.221802553397626        0.2685138308902179E-03
     5.232394444986667        0.2073548757775877E-03
     5.242986336575710        0.1522312806029272E-03
     5.253578228164751        0.1027644059761460E-03
     5.264170119753793        0.5848935714737781E-04
     5.274762011342835        0.1869921442600301E-04
     5.285353902931877         0.000000000000000    
  0  5  2  0  0.000000   #orbital l, n, z, is_polarized, population
 500    0.7346727343945775E-02     3.666016944628942     # npts, delta, cutoff
     0.000000000000000       -0.3924978061472088    
    0.7346727343945775E-02   -0.3924348658986415    
    0.1469345468789155E-01   -0.3922428759573062    
    0.2204018203183732E-01   -0.3919229318984100    
    0.2938690937578310E-01   -0.3914750943391544    
    0.3673363671972887E-01   -0.3908994478119953    
    0.4408036406367465E-01   -0.3901961011074891    
    0.5142709140762042E-01   -0.3893651874389871    
    0.5877381875156620E-01   -0.3884068646094860    