<preamble>

<basis_specs>
===============================================================================
V                    Z=  23    Mass=  50.942        Charge= 0.17977+309
Lmxo=2 Lmxkb= 2    BasisType=split      Semic=T
L=0  Nsemic=1  Cnfigmx=4
          i=1  nzeta=1  polorb=0  (3s)  (semicore shell)
            splnorm:   0.15000    
               vcte:    40.000    
               rinn:    2.5496    
               qcoe:    0.0000    
               qyuk:    0.0000    
               qwid:   0.10000E-01
                rcs:    2.8329    
            lambdas:    1.0000    
          i=2  nzeta=2  polorb=0  (4s)  (to be polarized non-perturbatively)
            splnorm:   0.15000    
               vcte:    40.000    
               rinn:    7.0582    
               qcoe:    0.0000    
               qyuk:    0.0000    
               qwid:   0.10000E-01
                rcs:    7.8425      5.6750    
            lambdas:    1.0000      1.0000    
L=1  Nsemic=1  Cnfigmx=4
          i=1  nzeta=1  polorb=0  (3p)  (semicore shell)
            splnorm:   0.15000    
               vcte:    40.000    
               rinn:    2.8615    
               qcoe:    0.0000    
               qyuk:    0.0000    
               qwid:   0.10000E-01
                rcs:    3.1762    
            lambdas:    1.0000    
          i=2  nzeta=1  polorb=0  (4p)  (non-perturbative polarization shell)
            splnorm:   0.15000    
               vcte:    40.000    
               rinn:    7.0653    
               qcoe:    0.0000    
               qyuk:    0.0000    
               qwid:   0.10000E-01
                rcs:    7.8425    
            lambdas:    1.0000    
L=2  Nsemic=0  Cnfigmx=3
          i=1  nzeta=2  polorb=0  (3d)
            splnorm:   0.15000    
               vcte:    40.000    
               rinn:    4.7283    
               qcoe:    0.0000    
               qyuk:    0.0000    
               qwid:   0.10000E-01
                rcs:    5.2537      3.2996    
            lambdas:    1.0000      1.0000    
-------------------------------------------------------------------------------
L=0  Nkbl=2  erefs: 0.17977+309 0.17977+309
L=1  Nkbl=2  erefs: 0.17977+309 0.17977+309
L=2  Nkbl=1  erefs: 0.17977+309
===============================================================================
</basis_specs>

<pseudopotential_header>
 V  pb nrl pcec
 ONCVPSP-3.2017-10-31Hamann's oncvpsp                        
 3s 2.00  r= 1.31/3p 6.00  r= 1.31/3d 3.00  r= 1.67/                    3s:3p:3d:4s:
</pseudopotential_header>
</preamble>
V                             # Symbol
V                             # Label
   23                         # Atomic number
     13.0000000000                             # Valence charge
     50.9420000000        # Mass 
     223.044470467        # Self energy 
   2   7                      # Lmax for basis, no. of nl orbitals 
   2   6                      # Lmax for projectors, no. of nl KB projectors
# PAOs:__________________________
  0  3  1  0  2.000000   #orbital l, n, z, is_polarized, population
 500    0.5677183683846111E-02     2.832914658239210     # npts, delta, cutoff
     0.000000000000000         1.129882479202407    
    0.5677183683846111E-02     1.129961243506714    
    0.1135436736769222E-01     1.130270698024661    
    0.1703155105153834E-01     1.130786152359285    
    0.2270873473538445E-01     1.131507098145980    
    0.2838591841923056E-01     1.132432837248569    
    0.3406310210307667E-01     1.133562475208072    
    0.3974028578692278E-01     1.134894921033345    
    0.4541746947076889E-01     1.136428887942413    
    0.5109465315461501E-01     1.138162894454971    
    0.5677183683846111E-01     1.140095265715475    
    0.6244902052230723E-01     1.142224135013342    
    0.6812620420615334E-01     1.144547445488375    
    0.7380338788999945E-01     1.147062952016124    
    0.7948057157384555E-01     1.149768223270161    
    0.8515775525769168E-01     1.152660643959094    
    0.9083493894153778E-01     1.155737417236389    
    0.9651212262538389E-01     1.158995567281153    
    0.1021893063092300         1.162431942048004    
    0.1078664899930761         1.166043216184025    
    0.1135436736769222         1.169825894110696    
    0.1192208573607683         1.173776313268579    
    0.1248980410446145         1.177890647522356    
    0.1305752247284606         1.182164910723668    
    0.1362524084123067         1.186594960429082    
    0.1419295920961528         1.191176501770279    
    0.1476067757799989         1.195905091473456    
    0.1532839594638450         1.200776142024710    
    0.1589611431476911         1.205784925978034    
    0.1646383268315372         1.210926580402339    
    0.1703155105153834         1.216196111463775    
    0.1759926941992294         1.221588399139396    
    0.1816698778830756         1.227098202058058    
    0.1873470615669217         1.232720162464255    
    0.1930242452507678         1.238448811300400    
    0.1987014289346139         1.244278573402831    
    0.2043786126184600         1.250203772806742    
    0.2100557963023061         1.256218638154925    
    0.2157329799861522         1.262317308205118    
    0.2214101636699984         1.268493837430519    
    0.2270873473538444         1.274742201707878    
    0.2327645310376906         1.281056304087367    
    0.2384417147215367         1.287429980638315    
    0.2441188984053828         1.293857006364636    
    0.2497960820892289         1.300331101183698    
    0.2554732657730750         1.306845935962218    
    0.2611504494569211         1.313395138602520    
    0.2668276331407672         1.319972300172515    
    0.2725048168246134         1.326570981072459    
    0.2781820005084595         1.333184717231537    
    0.2838591841923055         1.339807026327171    
    0.2895363678761517         1.346431414019798    
    0.2952135515599978         1.353051380195855    
    0.3008907352438439         1.359660425211537    
    0.3065679189276900         1.366252056129878    
    0.3122451026115362         1.372819792943625    
    0.3179222862953822         1.379357174776333    
    0.3235994699792283         1.385857766054056    
    0.3292766536630745         1.392315162640017    
    0.3349538373469206         1.398722997924610    
    0.3406310210307667         1.405074948863117    
    0.3463082047146128         1.411364741953524    
    0.3519853883984589         1.417586159146874    
    0.3576625720823050         1.423733043682623    
    0.3633397557661511         1.429799305841587    
    0.3690169394499972         1.435778928609103    
    0.3746941231338434         1.441665973241118    
    0.3803713068176894         1.447454584726089    
    0.3860484905015356         1.453138997135700    
    0.3917256741853817         1.458713538857447    
    0.3974028578692278         1.464172637702491    
    0.4030800415530739         1.469510825882162    
    0.4087572252369200         1.474722744846818    
    0.4144344089207661         1.479803149980945    
    0.4201115926046122         1.484746915148541    
    0.4257887762884583         1.489549037083151    
    0.4314659599723045         1.494204639617084    
    0.4371431436561506         1.498708977744714    
    0.4428203273399967         1.503057441514887    
    0.4484975110238428         1.507245559747884    
    0.4541746947076889         1.511269003572612    
    0.4598518783915350         1.515123589779956    
    0.4655290620753811         1.518805283988720    
    0.4712062457592273         1.522310203620636    
    0.4768834294430734         1.525634620681517    
    0.4825606131269194         1.528774964345775    
    0.4882377968107656         1.531727823341976    
    0.4939149804946117         1.534489948137403    
    0.4995921641784578         1.537058252919980    
    0.5052693478623039         1.539429817376250    
    0.5109465315461500         1.541601888264430    
    0.5166237152299962         1.543571880781991    
    0.5223008989138422         1.545337379727518    
    0.5279780825976884         1.546896140457010    
    0.5336552662815345         1.548246089635031    
    0.5393324499653805         1.549385325781637    
    0.5450096336492267         1.550312119616241    
    0.5506868173330728         1.551024914199916    
    0.5563640010169190         1.551522324878089    
    0.5620411847007650         1.551803139025786    
    0.5677183683846111         1.551866315597969    
    0.5733955520684573         1.551710984487845    
    0.5790727357523033         1.551336445696295    
    0.5847499194361495         1.550742168315930    
    0.5904271031199956         1.549927789333456    
    0.5961042868038416         1.548893112254445    
    0.6017814704876878         1.547638105554803    
    0.6074586541715339         1.546162900963419    
    0.6131358378553801         1.544467791580888    
    0.6188130215392261         1.542553229839256    
    0.6244902052230723         1.540419825308023    
    0.6301673889069184         1.538068342351805    
    0.6358445725907644         1.535499697645316    
    0.6415217562746106         1.532714957551396    
    0.6471989399584567         1.529715335367986    
    0.6528761236423029         1.526502188450150    
    0.6585533073261489         1.523077015213244    
    0.6642304910099950         1.519441452023564    
    0.6699076746938412         1.515597269982808    
    0.6755848583776872         1.511546371612709    
    0.6812620420615334         1.507290787446381    
    0.6869392257453795         1.502832672532888    
    0.6926164094292256         1.498174302861479    
    0.6982935931130717         1.493318071712094    
    0.7039707767969178         1.488266485938616    
    0.7096479604807640         1.483022162191358    
    0.7153251441646100         1.477587823085244    
    0.7210023278484562         1.471966293320052    
    0.7266795115323023         1.466160495792685    
    0.7323566952161483         1.460173447668264    
    0.7380338788999945         1.454008256106350    
    0.7437110625838406         1.447668114608784    
    0.7493882462676867         1.441156298862482    
    0.7550654299515328         1.434476162701012    
    0.7607426136353789         1.427631134060476    
    0.7664197973192250         1.420624710934916    
    0.7720969810030711         1.413460457336562    
    0.7777741646869173         1.406141999266034    
    0.7834513483707634         1.398673020697496    
    0.7891285320546095         1.391057259583516    
    0.7948057157384556         1.383298503884243    
    0.8004828994223017         1.375400587625270    
    0.8061600831061478         1.367367386988377    
    0.8118372667899939         1.359202816439202    
    0.8175144504738401         1.350910824895522    
    0.8231916341576861         1.342495391939863    
    0.8288688178415322         1.333960524079671    
    0.8345460015253784         1.325310251058319    
    0.8402231852092245         1.316548622219868    
    0.8459003688930706         1.307679702930274    
    0.8515775525769167         1.298707571057742    
    0.8572547362607629         1.289636313514298    
    0.8629319199446089         1.280470022861105    
    0.8686091036284550         1.271212793979076    
    0.8742862873123012         1.261868720806830    
    0.8799634709961472         1.252441893147388    
    0.8856406546799934         1.242936393545055    
    0.8913178383638395         1.233356294233778    
    0.8969950220476856         1.223705654157792    
    0.9026722057315317         1.213988516065808    
    0.9083493894153778         1.204208903678945    
    0.9140265730992240         1.194370818933640    
    0.9197037567830700         1.184478239299187    
    0.9253809404669161         1.174535115171076    
    0.9310581241507623         1.164545367339383    
    0.9367353078346083         1.154512884533202    
    0.9424124915184545         1.144441521040137    
    0.9480896752023006         1.134335094401615    
    0.9537668588861468         1.124197383182877    
    0.9594440425699928         1.114032124818172    
    0.9651212262538389         1.103843013529918    
    0.9707984099376851         1.093633698322161    
    0.9764755936215311         1.083407781046980    
    0.9821527773053773         1.073168814544067    
    0.9878299609892234         1.062920300851992    
    0.9935071446730694         1.052665689491358    
    0.9991843283569156         1.042408375818228    
     1.004861512040762         1.032151699447991    
     1.010538695724608         1.021898942747992    
     1.016215879408454         1.011653329399094    
     1.021893063092300         1.001418023024534    
     1.027570246776146        0.9911961258859814    
     1.033247430459992        0.9809906776454769    
     1.038924614143838        0.9708046541929091    
     1.044601797827684        0.9606409665379901    
     1.050278981511531        0.9505024597661076    
     1.055956165195377        0.9403919120572988    
     1.061633348879223        0.9303120337675820    
     1.067310532563069        0.9202654665720813    
     1.072987716246915        0.9102547826691668    
     1.078664899930761        0.9002824840449541    
     1.084342083614607        0.8903510017976788    
     1.090019267298453        0.8804626955211879    
     1.095696450982300        0.8706198527472340    
     1.101373634666146        0.8608246884457115    
     1.107050818349992        0.8510793445825213    
     1.112728002033838        0.8413858897346242    
     1.118405185717684        0.8317463187615677    
     1.124082369401530        0.8221625525336301    
     1.129759553085376        0.8126364377151366    
     1.135436736769222        0.8031697466036637    
     1.141113920453068        0.7937641770239096    
     1.146791104136915        0.7844213522762926    
     1.152468287820761        0.7751428211399681    
     1.158145471504607        0.7659300579291581    
     1.163822655188453        0.7567844626037358    
     1.169499838872299        0.7477073609321953    
     1.175177022556145        0.7387000047079261    
     1.180854206239991        0.7297635720177640    
     1.186531389923837        0.7208991675621724    
     1.192208573607683        0.7121078230278469    
     1.197885757291530        0.7033904975105157    
     1.203562940975376        0.6947480779892378    
     1.209240124659222        0.6861813798507482    
     1.214917308343068        0.6776911474632701    
     1.220594492026914        0.6692780548004019    
     1.226271675710760        0.6609427061127293    
     1.231948859394606        0.6526856366482380    
     1.237626043078452        0.6445073134201187    
     1.243303226762298        0.6364081360208876    
     1.248980410446145        0.6283884374834334    
     1.254657594129991        0.6204484851866393    
     1.260334777813837        0.6125884818059839    
     1.266011961497683        0.6048085663078756    
     1.271689145181529        0.5971088149746685    
     1.277366328865375        0.5894892423464356    
     1.283043512549221        0.5819498025381252    
     1.288720696233067        0.5744903908473713    
     1.294397879916913        0.5671108452943666    
     1.300075063600759        0.5598109459403032    
     1.305752247284606        0.5525904146084692    
     1.311429430968452        0.5454489173087549    
     1.317106614652298        0.5383860718209199    
     1.322783798336144        0.5314014566281128    
     1.328460982019990        0.5244946207200470    
     1.334138165703836        0.5176650932258798    
     1.339815349387682        0.5109123918441051    
     1.345492533071528        0.5042360258088607    
     1.351169716755374        0.4976354950241124    
     1.356846900439221        0.4911102881633308    
     1.362524084123067        0.4846598832222785    
     1.368201267806913        0.4782837487043551    
     1.373878451490759        0.4719813447032767    
     1.379555635174605        0.4657521233984762    
     1.385232818858451        0.4595955295620104    
     1.390910002542297        0.4535110011070904    
     1.396587186226143        0.4474979696285165    
     1.402264369909989        0.4415558609195563    
     1.407941553593836        0.4356840954680479    
     1.413618737277682        0.4298820889331242    
     1.419295920961528        0.4241492526033609    
     1.424973104645374        0.4184849938367127    
     1.430650288329220        0.4128887164833897    
     1.436327472013066        0.4073598212915792    
     1.442004655696912        0.4018977062967844    
     1.447681839380758        0.3965017671957776    
     1.453359023064605        0.3911713977050322    
     1.459036206748451        0.3859059899043563    
     1.464713390432297        0.3807049345666496    
     1.470390574116143        0.3755676214736630    
     1.476067757799989        0.3704934397183202    
     1.481744941483835        0.3654817779946037    
     1.487422125167681        0.3605320248747926    
     1.493099308851527        0.3556435690745267    
     1.498776492535373        0.3508157997067095    
     1.504453676219220        0.3460481065239917    
     1.510130859903066        0.3413398801502918    
     1.515808043586912        0.3366905123022055    
     1.521485227270758        0.3320993960001875    
     1.527162410954604        0.3275659257698658    
     1.532839594638450        0.3230894978341631    
     1.538516778322296        0.3186695102962954    
     1.544193962006142        0.3143053633139061    
     1.549871145689989        0.3099964592648258    
     1.555548329373835        0.3057422029046994    
     1.561225513057681        0.3015420015166623    
     1.566902696741527        0.2973952650534102    
     1.572579880425373        0.2933014062720187    
     1.578257064109219        0.2892598408616214    
     1.583934247793065        0.2852699875642555    
     1.589611431476911        0.2813312682891481    
     1.595288615160757        0.2774431082206110    
     1.600965798844603        0.2736049359197534    
     1.606642982528450        0.2698161834205450    
     1.612320166212296        0.2660762863207350    
     1.617997349896142        0.2623846838656287    
     1.623674533579988        0.2587408190253764    
     1.629351717263834        0.2551441385733795    
     1.635028900947680        0.2515940931568119    
     1.640706084631526        0.2480901373539015    
     1.646383268315372        0.2446317297399220    
     1.652060451999218        0.2412183329358420    
     1.657737635683064        0.2378494136726414    
     1.663414819366911        0.2345244428391937    
     1.669092003050757        0.2312428955099725    
     1.674769186734603        0.2280042509798947    
     1.680446370418449        0.2248079928390801    
     1.686123554102295        0.2216536089726744    
     1.691800737786141        0.2185405916222903    
     1.697477921469987        0.2154684373685687    
     1.703155105153833        0.2124366471448151    
     1.708832288837679        0.2094447263078446    
     1.714509472521526        0.2064921846132746    
     1.720186656205372        0.2035785362913795    
     1.725863839889218        0.2007033000020312    
     1.731541023573064        0.1978659988569559    
     1.737218207256910        0.1950661604304272    
     1.742895390940756        0.1923033167642744    
     1.748572574624602        0.1895770043708260    
     1.754249758308448        0.1868867642326653    
     1.759926941992294        0.1842321418012559    
     1.765604125676141        0.1816126869932906    
     1.771281309359987        0.1790279541853415    
     1.776958493043833        0.1764775022068440    
     1.782635676727679        0.1739608943312802    
     1.788312860411525        0.1714776982658586    
     1.793990044095371        0.1690274861396001    
     1.799667227779217        0.1666098344899779    
     1.805344411463063        0.1642243242481145    
     1.811021595146910        0.1618705407227794    
     1.816698778830756        0.1595480735830648    
     1.822375962514602        0.1572565168398490    
     1.828053146198448        0.1549954688261369    
     1.833730329882294        0.1527645321764019    
     1.839407513566140        0.1505633138048617    
     1.845084697249986        0.1483914248827622    
     1.850761880933832        0.1462484808148046    
     1.856439064617678        0.1441341012147337    
     1.862116248301525        0.1420479098801025    
     1.867793431985371        0.1399895347661851    
     1.873470615669217        0.1379586079593695    
     1.879147799353063        0.1359547656498659    
     1.884824983036909        0.1339776481043519    
     1.890502166720755        0.1320268996358435    
     1.896179350404601        0.1301021685756742    
     1.901856534088447        0.1282031072435661    
     1.907533717772294        0.1263293719147408    
     1.913210901456140        0.1244806227972131    
     1.918888085139986        0.1226565239949556    
     1.924565268823832        0.1208567434775265    
     1.930242452507678        0.1190809530526139    
     1.935919636191524        0.1173288283236767    
     1.941596819875370        0.1156000486658277    
     1.947274003559216        0.1138942971933587    
     1.952951187243062        0.1122112607270558    
     1.958628370926908        0.1105506297593612    
     1.964305554610755        0.1089120984223550    
     1.969982738294601        0.1072953644545428    
     1.975659921978447        0.1057001291543339    
     1.981337105662293        0.1041260973828625    
     1.987014289346139        0.1025729775101000    
     1.992691473029985        0.1010404813670498    
     1.998368656713831        0.9952832422343426E-01
     2.004045840397677        0.9803622475616205E-01
     2.009723024081524        0.9656390501680423E-01
     2.015400207765369        0.9511109039743983E-01
     2.021077391449216        0.9367750959698502E-01
     2.026754575133062        0.9226289458730991E-01
     2.032431758816908        0.9086698057942970E-01
     2.038108942500754        0.8948950599054829E-01
     2.043786126184600        0.8813021241096679E-01
     2.049463309868446        0.8678884457106723E-01
     2.055140493552292        0.8546515030846782E-01
     2.060817677236138        0.8415888053511907E-01
     2.066494860919985        0.8286978920455164E-01
     2.072172044603831        0.8159763327927246E-01
     2.077849228287677        0.8034217269830425E-01
     2.083526411971523        0.7910317034486597E-01
     2.089203595655369        0.7788039201420539E-01
     2.094880779339215        0.7667360638159104E-01
     2.100557963023061        0.7548258497046796E-01
     2.106235146706907        0.7430710212079332E-01
     2.111912330390754        0.7314693495751996E-01
     2.117589514074599        0.7200186335927755E-01
     2.123266697758446        0.7087166992722449E-01
     2.128943881442292        0.6975613995410732E-01
     2.134621065126138        0.6865506139348000E-01
     2.140298248809984        0.6756822482912885E-01
     2.145975432493830        0.6649542344468863E-01
     2.151652616177676        0.6543645299345954E-01
     2.157329799861522        0.6439111176843050E-01
     2.163006983545368        0.6335920057247584E-01
     2.168684167229215        0.6234052268877659E-01
     2.174361350913061        0.6133488385143144E-01
     2.180038534596907        0.6034209221629858E-01
     2.185715718280753        0.5936195833200854E-01
     2.191392901964599        0.5839429511119827E-01
     2.197070085648445        0.5743891780195205E-01
     2.202747269332291        0.5649564395944805E-01
     2.208424453016137        0.5556429341783137E-01
     2.214101636699983        0.5464468826225739E-01
     2.219778820383830        0.5373665280116910E-01
     2.225456004067676        0.5284001353877314E-01
     2.231133187751522        0.5195459914774238E-01
     2.236810371435368        0.5108024044210902E-01
     2.242487555119214        0.5021677035036309E-01
     2.248164738803060        0.4936402388876976E-01
     2.253841922486906        0.4852183813488406E-01
     2.259519106170752        0.4769005220130942E-01
     2.265196289854599        0.4686850720961074E-01
     2.270873473538444        0.4605704626446618E-01
     2.276550657222291        0.4525551442802178E-01
     2.282227840906137        0.4446375869444516E-01
     2.287905024589983        0.4368162796472078E-01
     2.293582208273829        0.4290897302159671E-01
     2.299259391957675        0.4214564650477364E-01
     2.304936575641521        0.4139150288628957E-01
     2.310613759325367        0.4064639844611472E-01
     2.316290943009213        0.3991019124796506E-01
     2.321968126693060        0.3918274111528420E-01
     2.327645310376905        0.3846390960745891E-01
     2.333322494060752        0.3775355999622854E-01
     2.338999677744598        0.3705155724230865E-01
     2.344676861428444        0.3635776797221753E-01
     2.350354045112290        0.3567206045528594E-01
     2.356031228796136        0.3499430458088867E-01
     2.361708412479982        0.3432437183586996E-01
     2.367385596163829        0.3366213528218550E-01
     2.373062779847674        0.3300746953473579E-01
     2.378739963531521        0.3236025073938957E-01
     2.384417147215367        0.3172035655122306E-01
     2.390094330899213        0.3108766611295067E-01
     2.395771514583059        0.3046206003356995E-01
     2.401448698266905        0.2984342036719373E-01
     2.407125881950751        0.2923163059207378E-01
     2.412803065634597        0.2862657558983293E-01
     2.418480249318443        0.2802814162488864E-01
     2.424157433002290        0.2743621632408342E-01
     2.429834616686136        0.2685068865650490E-01
     2.435511800369982        0.2627144891348826E-01
     2.441188984053828        0.2569838868882678E-01
     2.446866167737674        0.2513140085917031E-01
     2.452543351421520        0.2457037956461894E-01
     2.458220535105366        0.2401522018951462E-01
     2.463897718789212        0.2346581934340011E-01
     2.469574902473059        0.2292207484218679E-01
     2.475252086156905        0.2238388568950340E-01
     2.480929269840751        0.2185115205823140E-01
     2.486606453524597        0.2132377527224161E-01
     2.492283637208443        0.2080165778828528E-01
     2.497960820892289        0.2028470317809108E-01
     2.503638004576135        0.1977281611063719E-01
     2.509315188259981        0.1926590233459994E-01
     2.514992371943827        0.1876386866100420E-01
     2.520669555627673        0.1826662294601790E-01
     2.526346739311520        0.1777407407394461E-01
     2.532023922995366        0.1728613194038631E-01
     2.537701106679212        0.1680270743557748E-01
     2.543378290363058        0.1632371242790285E-01
     2.549055474046904        0.1584905974757173E-01
     2.554732657730750        0.1537866317046454E-01
     2.560409841414596        0.1491243740215043E-01
     2.566087025098442        0.1445029806213105E-01
     2.571764208782288        0.1399216168028183E-01
     2.577441392466135        0.1353794599663290E-01
     2.583118576149981        0.1308757225618194E-01
     2.588795759833827        0.1264097238218415E-01
     2.594472943517673        0.1219810137834504E-01
     2.600150127201519        0.1175895155547962E-01
     2.605827310885365        0.1132356445322699E-01
     2.611504494569211        0.1089203804964375E-01
     2.617181678253057        0.1046452881744460E-01
     2.622858861936904        0.1004124939052337E-01
     2.628536045620749        0.9622463052442562E-02
     2.634213229304596        0.9208476248598843E-02
     2.639890412988442        0.8799630114183351E-02
     2.645567596672288        0.8396291753157915E-02
     2.651244780356134        0.7998845769909183E-02
     2.656921964039980        0.7607686368793885E-02
     2.662599147723826        0.7223210198922744E-02
     2.668276331407673        0.6845810024995872E-02
     2.673953515091518        0.6475869240444054E-02
     2.679630698775365        0.6113757198092646E-02
     2.685307882459210        0.5759825309013577E-02
     2.690985066143057        0.5414403846973757E-02
     2.696662249826903        0.5077799390111570E-02
     2.702339433510749        0.4750292830446592E-02
     2.708016617194595        0.4432137883701873E-02
     2.713693800878441        0.4123560035431058E-02
     2.719370984562287        0.3824755863674270E-02
     2.725048168246134        0.3535892682766456E-02
     2.730725351929979        0.3257108457050491E-02
     2.736402535613826        0.2988511936746281E-02
     2.742079719297672        0.2730182970811605E-02
     2.747756902981518        0.2482172952883956E-02
     2.753434086665364        0.2244505355779037E-02
     2.759111270349210        0.2017176306659122E-02
     2.764788454033056        0.1800155147372884E-02
     2.770465637716903        0.1593384909916765E-02
     2.776142821400748        0.1396782610544301E-02
     2.781820005084595        0.1210239218107408E-02
     2.787497188768441        0.1033619063136114E-02
     2.793174372452287        0.8667582812867639E-03
     2.798851556136133        0.7094615281511878E-03
     2.804528739819979        0.5614954044644010E-03
     2.810205923503825        0.4225750421892049E-03
     2.815883107187671        0.2923345529987787E-03
     2.821560290871517        0.1702517002439544E-03
     2.827237474555364        0.5538281155807154E-04
     2.832914658239210         0.000000000000000    
  0  4  1  0  2.000000   #orbital l, n, z, is_polarized, population
 500    0.1571639921459855E-01     7.842483208084676     # npts, delta, cutoff
     0.000000000000000        0.4397262639606225    
    0.1571639921459855E-01    0.4399374115477895    
    0.3143279842919710E-01    0.4405967543598626    