<preamble>

<basis_specs>
===============================================================================
Y                    Z=  39    Mass=  88.906        Charge= 0.17977+309
Lmxo=2 Lmxkb= 2    BasisType=split      Semic=T
L=0  Nsemic=1  Cnfigmx=5
          i=1  nzeta=1  polorb=0  (4s)  (semicore shell)
            splnorm:   0.15000    
               vcte:    40.000    
               rinn:    3.1349    
               qcoe:    0.0000    
               qyuk:    0.0000    
               qwid:   0.10000E-01
                rcs:    3.4832    
            lambdas:    1.0000    
          i=2  nzeta=2  polorb=0  (5s)  (to be polarized non-perturbatively)
            splnorm:   0.15000    
               vcte:    40.000    
               rinn:    7.9195    
               qcoe:    0.0000    
               qyuk:    0.0000    
               qwid:   0.10000E-01
                rcs:    8.7907      6.5162    
            lambdas:    1.0000      1.0000    
L=1  Nsemic=1  Cnfigmx=5
          i=1  nzeta=1  polorb=0  (4p)  (semicore shell)
            splnorm:   0.15000    
               vcte:    40.000    
               rinn:    3.6474    
               qcoe:    0.0000    
               qyuk:    0.0000    
               qwid:   0.10000E-01
                rcs:    4.0486    
            lambdas:    1.0000    
          i=2  nzeta=1  polorb=0  (5p)  (non-perturbative polarization shell)
            splnorm:   0.15000    
               vcte:    40.000    
               rinn:    7.9195    
               qcoe:    0.0000    
               qyuk:    0.0000    
               qwid:   0.10000E-01
                rcs:    8.7907    
            lambdas:    1.0000    
L=2  Nsemic=0  Cnfigmx=4
          i=1  nzeta=2  polorb=0  (4d)
            splnorm:   0.15000    
               vcte:    40.000    
               rinn:    6.8357    
               qcoe:    0.0000    
               qyuk:    0.0000    
               qwid:   0.10000E-01
                rcs:    7.5952      5.2432    
            lambdas:    1.0000      1.0000    
-------------------------------------------------------------------------------
L=0  Nkbl=2  erefs: 0.17977+309 0.17977+309
L=1  Nkbl=2  erefs: 0.17977+309 0.17977+309
L=2  Nkbl=1  erefs: 0.17977+309
===============================================================================
</basis_specs>

<pseudopotential_header>
 Y  pb nrl pcec
 ONCVPSP-3.2017-10-31Hamann's oncvpsp                        
 4s 2.00  r= 1.61/4p 6.00  r= 1.51/4d 1.00  r= 1.57/                    4s:4p:4d:5s:
</pseudopotential_header>
</preamble>
Y                             # Symbol
Y                             # Label
   39                         # Atomic number
     11.0000000000                             # Valence charge
     88.9060000000        # Mass 
     126.489725548        # Self energy 
   2   7                      # Lmax for basis, no. of nl orbitals 
   2   6                      # Lmax for projectors, no. of nl KB projectors
# PAOs:__________________________
  0  4  1  0  2.000000   #orbital l, n, z, is_polarized, population
 500    0.6980441873740810E-02     3.483240494996664     # npts, delta, cutoff
     0.000000000000000        0.1412804242139049    
    0.6980441873740810E-02    0.1414189810147952    
    0.1396088374748162E-01    0.1418423010290923    
    0.2094132562122243E-01    0.1425474860023595    
    0.2792176749496324E-01    0.1435340090882309    
    0.3490220936870405E-01    0.1448011345282796    
    0.4188265124244486E-01    0.1463479177456564    
    0.4886309311618567E-01    0.1481732061706761    
    0.5584353498992648E-01    0.1502756403332919    
    0.6282397686366729E-01    0.1526536551694509    
    0.6980441873740810E-01    0.1553054815292940    
    0.7678486061114891E-01    0.1582291478824198    
    0.8376530248488973E-01    0.1614224822170527    
    0.9074574435863053E-01    0.1648831141303043    
    0.9772618623237134E-01    0.1686084771066803    
    0.1047066281061122        0.1725958109818450    
    0.1116870699798530        0.1768421645884671    
    0.1186675118535938        0.1813443985807734    
    0.1256479537273346        0.1860991884342333    
    0.1326283956010754        0.1911030276165903    
    0.1396088374748162        0.1963522309262654    
    0.1465892793485570        0.2018429379939630    
    0.1535697212222978        0.2075711169431156    
    0.1605501630960386        0.2135325682046296    
    0.1675306049697795        0.2197229284812144    
    0.1745110468435203        0.2261376748564143    
    0.1814914887172611        0.2327721290432883    
    0.1884719305910019        0.2396214617675474    
    0.1954523724647427        0.2466806972797954    
    0.2024328143384835        0.2539447179913928    
    0.2094132562122243        0.2614082692283292    
    0.2163936980859651        0.2690659640973678    
    0.2233741399597059        0.2769122884586188    
    0.2303545818334467        0.2849416059985836    
    0.2373350237071875        0.2931481633976405    
    0.2443154655809283        0.3015260955858280    
    0.2512959074546692        0.3100694310807289    
    0.2582763493284100        0.3187720974011852    
    0.2652567912021508        0.3276279265505206    
    0.2722372330758916        0.3366306605628840    
    0.2792176749496324        0.3457739571063236    
    0.2861981168233732        0.3550513951361410    
    0.2931785586971140        0.3644564805920645    
    0.3001590005708548        0.3739826521327955    
    0.3071394424445956        0.3836232869014435    
    0.3141198843183365        0.3933717063154046    
    0.3211003261920773        0.4032211818742510    
    0.3280807680658181        0.4131649409792161    
    0.3350612099395589        0.4231961727579070    
    0.3420416518132997        0.4333080338879267    
    0.3490220936870405        0.4434936544131287    
    0.3560025355607813        0.4537461435462939    
    0.3629829774345221        0.4640585954521056    
    0.3699634193082629        0.4744240950043494    
    0.3769438611820037        0.4848357235113813    
    0.3839243030557445        0.4952865644039812    
    0.3909047449294853        0.5057697088798115    
    0.3978851868032262        0.5162782614988303    
    0.4048656286769670        0.5268053457240915    
    0.4118460705507078        0.5373441094025169    
    0.4188265124244486        0.5478877301803281    
    0.4258069542981894        0.5584294208479865    
    0.4327873961719302        0.5689624346095904    
    0.4397678380456710        0.5794800702718862    
    0.4467482799194119        0.5899756773481136    
    0.4537287217931527        0.6004426610721560    
    0.4607091636668935        0.6108744873185395    
    0.4676896055406343        0.6212646874240439    
    0.4746700474143751        0.6316068629068521    
    0.4816504892881159        0.6418946900792796    
    0.4886309311618567        0.6521219245503880    
    0.4956113730355975        0.6622824056148706    
    0.5025918149093384        0.6723700605248591    
    0.5095722567830792        0.6823789086414032    
    0.5165526986568200        0.6923030654626474    
    0.5235331405305608        0.7021367465257902    
    0.5305135824043016        0.7118742711802457    
    0.5374940242780424        0.7215100662294778    
    0.5444744661517832        0.7310386694392478    
    0.5514549080255240        0.7404547329101517    
    0.5584353498992648        0.7497530263125743    
    0.5654157917730056        0.7589284399822814    
    0.5723962336467464        0.7679759878751450    
    0.5793766755204872        0.7768908103796184    
    0.5863571173942280        0.7856681769857967    
    0.5933375592679688        0.7943034888100647    
    0.6003180011417096        0.8027922809745115    
    0.6072984430154504        0.8111302248404798    
    0.6142788848891912        0.8193131300957655    
    0.6212593267629321        0.8273369466952137    
    0.6282397686366730        0.8351977666545580    
    0.6352202105104138        0.8428918256975516    
    0.6422006523841546        0.8504155047566155    
    0.6491810942578954        0.8577653313273610    
    0.6561615361316362        0.8649379806775083    
    0.6631419780053770        0.8719302769108961    
    0.6701224198791178        0.8787391938873995    
    0.6771028617528586        0.8853618559997292    
    0.6840833036265994        0.8917955388082477    
    0.6910637455003402        0.8980376695350242    
    0.6980441873740810        0.9040858274185436    
    0.7050246292478218        0.9099377439305666    
    0.7120050711215626        0.9155913028567937    
    0.7189855129953034        0.9210445402430698    
    0.7259659548690442        0.9262956442090291    
    0.7329463967427851        0.9313429546311530    
    0.7399268386165259        0.9361849626973077    
    0.7469072804902667        0.9408203103350010    
    0.7538877223640075        0.9452477895155871    
    0.7608681642377483        0.9494663414368437    
    0.7678486061114891        0.9534750555863426    
    0.7748290479852299        0.9572731686882040    
    0.7818094898589707        0.9608600635358109    
    0.7887899317327115        0.9642352677132010    
    0.7957703736064523        0.9673984522079047    
    0.8027508154801931        0.9703494299180273    
    0.8097312573539340        0.9730881540564681    
    0.8167116992276748        0.9756147164552320    
    0.8236921411014156        0.9779293457727839    
    0.8306725829751564        0.9800324056074872    
    0.8376530248488973        0.9819243925202106    
    0.8446334667226381        0.9836059339691861    
    0.8516139085963789        0.9850777861602679    
    0.8585943504701197        0.9863408318157526    
    0.8655747923438605        0.9873960778649520    
    0.8725552342176013        0.9882446530597147    
    0.8795356760913421        0.9888878055181439    
    0.8865161179650829        0.9893269001997284    
    0.8934965598388237        0.9895634163151321    
    0.9004770017125645        0.9895989446739109    
    0.9074574435863053        0.9894351849733892    
    0.9144378854600461        0.9890739430319628    
    0.9214183273337869        0.9885171279700616    
    0.9283987692075277        0.9877667493420316    
    0.9353792110812685        0.9868249142221446    
    0.9423596529550093        0.9856938242479710    
    0.9493400948287501        0.9843757726243003    
    0.9563205367024910        0.9828731410908024    
    0.9633009785762318        0.9811883968566022    
    0.9702814204499726        0.9793240895048777    
    0.9772618623237134        0.9772828478706275    
    0.9842423041974543        0.9750673768946733    
    0.9912227460711951        0.9726804544569695    
    0.9982031879449359        0.9701249281922316    
     1.005183629818677        0.9674037122909021    
     1.012164071692417        0.9645197842883834    
     1.019144513566158        0.9614761818454788    
     1.026124955439899        0.9582759996070936    
     1.033105397313640        0.9549223996449394    
     1.040085839187381        0.9514185700871682    
     1.047066281061122        0.9477677532095130    
     1.054046722934862        0.9439732388995810    
     1.061027164808603        0.9400383578270985    
     1.068007606682344        0.9359664782413164    
     1.074988048556085        0.9317610027815263    
     1.081968490429826        0.9274253653032165    
     1.088948932303566        0.9229630277224196    
     1.095929374177307        0.9183774768806098    
     1.102909816051048        0.9136722214326523    
     1.109890257924789        0.9088507887600037    
     1.116870699798530        0.9039167219116311    
     1.123851141672271        0.8988735765747035    
     1.130831583546011        0.8937249180774283    
     1.137812025419752        0.8884743184259984    
     1.144792467293493        0.8831253533778943    
     1.151772909167234        0.8776815995534243    
     1.158753351040974        0.8721466315876193    
     1.165733792914715        0.8665240193242784    
     1.172714234788456        0.8608173250541314    
     1.179694676662197        0.8550301007988540    
     1.186675118535938        0.8491658856427665    
     1.193655560409679        0.8432282031138414    
     1.200636002283419        0.8372205586157617    
     1.207616444157160        0.8311464369125092    
     1.214596886030901        0.8250092996670860    
     1.221577327904642        0.8188125830357849    
     1.228557769778382        0.8125596953195487    
     1.235538211652123        0.8062540146736176    
     1.242518653525864        0.7998988868769057    
     1.249499095399605        0.7934976231621977    
     1.256479537273346        0.7870534981085443    
     1.263459979147087        0.7805697475967595    
     1.270440421020828        0.7740495668293170    
     1.277420862894568        0.7674961084154267    
     1.284401304768309        0.7609124805224367    
     1.291381746642050        0.7543017450942701    
     1.298362188515791        0.7476669161378698    
     1.305342630389531        0.7410109580783212    
     1.312323072263272        0.7343367841833859    
     1.319303514137013        0.7276472550581277    
     1.326283956010754        0.7209451772100970    
     1.333264397884495        0.7142333016858016    
     1.340244839758236        0.7075143227786449    
     1.347225281631976        0.7007908768090294    
     1.354205723505717        0.6940655409766409    
     1.361186165379458        0.6873408322855034    
     1.368166607253199        0.6806192065418083    
     1.375147049126940        0.6739030574247158    
     1.382127491000680        0.6671947156302912    
     1.389107932874421        0.6604964480883869    
     1.396088374748162        0.6538104572527984    
     1.403068816621903        0.6471388804641971    
     1.410049258495644        0.6404837893859753    
     1.417029700369384        0.6338471895126304    
     1.424010142243125        0.6272310197504019    
     1.430990584116866        0.6206371520699820    
     1.437971025990607        0.6140673912306338    
     1.444951467864348        0.6075234745755640    
     1.451931909738088        0.6010070718979789    
     1.458912351611829        0.5945197853764854    
     1.465892793485570        0.5880631495774773    
     1.472873235359311        0.5816386315387927    
     1.479853677233052        0.5752476308980364    
     1.486834119106793        0.5688914801083704    
     1.493814560980533        0.5625714447180928    
     1.500795002854274        0.5562887237206028    
     1.507775444728015        0.5500444499050875    
     1.514755886601756        0.5438396903862480    
     1.521736328475497        0.5376754471147569    
     1.528716770349237        0.5315526574399007    
     1.535697212222978        0.5254721947526058    
     1.542677654096719        0.5194348692946197    
     1.549658095970460        0.5134414288433518    
     1.556638537844201        0.5074925594743938    
     1.563618979717941        0.5015888864443312    
     1.570599421591682        0.4957309754115664    
     1.577579863465423        0.4899193337621459    
     1.584560305339164        0.4841544109683587    
     1.591540747212905        0.4784365982948519    
     1.598521189086646        0.4727662296721368    
     1.605501630960386        0.4671435859761120    
     1.612482072834127        0.4615689013078659    
     1.619462514707868        0.4560423698519775    
     1.626442956581609        0.4505641531928757    
     1.633423398455350        0.4451343869608932    
     1.640403840329090        0.4397531850402952    
     1.647384282202831        0.4344206397734914    
     1.654364724076572        0.4291368211775903    
     1.661345165950313        0.4239017769656265    
     1.668325607824054        0.4187155338370241    
     1.675306049697795        0.4135780986248123    
     1.682286491571535        0.4084894591336091    
     1.689266933445276        0.4034495848095148    
     1.696247375319017        0.3984584274722398    
     1.703227817192758        0.3935159220358624    
     1.710208259066498        0.3886219872082926    
     1.717188700940239        0.3837765261678780    
     1.724169142813980        0.3789794272193044    
     1.731149584687721        0.3742305644295306    
     1.738130026561462        0.3695297982438724    
     1.745110468435203        0.3648769760833872    
     1.752090910308943        0.3602719329234947    
     1.759071352182684        0.3557144918543884    
     1.766051794056425        0.3512044646241669    
     1.773032235930166        0.3467416521647075    
     1.780012677803906        0.3423258451007326    
     1.786993119677647        0.3379568242430018    
     1.793973561551388        0.3336343610656068    
     1.800954003425129        0.3293582181677505    
     1.807934445298870        0.3251281497209988    
     1.814914887172611        0.3209439019018593    
     1.821895329046352        0.3168052133101727    
     1.828875770920092        0.3127118153740121    
     1.835856212793833        0.3086634327412267    
     1.842836654667574        0.3046597836577828    
     1.849817096541315        0.3007005803339189    
     1.856797538415055        0.2967855292979475    
     1.863777980288796        0.2929143317380767    
     1.870758422162537        0.2890866838328075    
     1.877738864036278        0.2853022770701267    
     1.884719305910019        0.2815607985556816    
     1.891699747783760        0.2778619313104448    
     1.898680189657500        0.2742053545581966    
     1.905660631531241        0.2705907440029109    
     1.912641073404982        0.2670177720963908    
     1.919621515278723        0.2634861082966722    
     1.926601957152464        0.2599954193171692    
     1.933582399026204        0.2565453693668345    
     1.940562840899945        0.2531356203819031    
     1.947543282773686        0.2497658322491665    
     1.954523724647427        0.2464356630210268    
     1.961504166521168        0.2431447691227829    
     1.968484608394909        0.2398928055522312    
     1.975465050268649        0.2366794260717744    
     1.982445492142390        0.2335042833933039    
     1.989425934016131        0.2303670293561549    
     1.996406375889872        0.2272673150982017    
     2.003386817763613        0.2242047912202887    
     2.010367259637353        0.2211791079443778    
     2.017347701511094        0.2181899152654069    
     2.024328143384835        0.2152368630971046    
     2.031308585258576        0.2123196014119711    
     2.038289027132317        0.2094377803755961    
     2.045269469006057        0.2065910504754448    
     2.052249910879798        0.2037790626442835    
     2.059230352753539        0.2010014683784684    
     2.066210794627280        0.1982579198511735    
     2.073191236501021        0.1955480700207517    
     2.080171678374761        0.1928715727343714    
     2.087152120248502        0.1902280828270728    
     2.094132562122243        0.1876172562163775    
     2.101113003995984        0.1850387499926029    
     2.108093445869724        0.1824922225049901    
     2.115073887743466        0.1799773334437909    
     2.122054329617206        0.1774937439184527    
     2.129034771490947        0.1750411165319999    
     2.136015213364688        0.1726191154517214    
     2.142995655238429        0.1702274064763093    
     2.149976097112170        0.1678656570995855    
     2.156956538985910        0.1655335365708320    
     2.163936980859651        0.1632307159519165    
     2.170917422733392        0.1609568681712912    
     2.177897864607133        0.1587116680750063    
     2.184878306480873        0.1564947924747137    
     2.191858748354615        0.1543059201928900    
     2.198839190228355        0.1521447321053347    
     2.205819632102096        0.1500109111810192    
     2.212800073975837        0.1479041425193302    
     2.219780515849578        0.1458241133848740    
     2.226760957723319        0.1437705132399408    
     2.233741399597059        0.1417430337745935    
     2.240721841470800        0.1397413689345507    
     2.247702283344541        0.1377652149469146    
     2.254682725218282        0.1358142703439068    
     2.261663167092022        0.1338882359844870    
     2.268643608965763        0.1319868150741057    
     2.275624050839504        0.1301097131825826    
     2.282604492713245        0.1282566382602688    
     2.289584934586986        0.1264273006523676    
     2.296565376460726        0.1246214131116709    
     2.303545818334467        0.1228386908096786    
     2.310526260208208        0.1210788513462440    
     2.317506702081949        0.1193416147576441    
     2.324487143955690        0.1176267035232975    
     2.331467585829431        0.1159338425711116    
     2.338448027703171        0.1142627592815618    
     2.345428469576912        0.1126131834904490    
     2.352408911450653        0.1109848474905091    
     2.359389353324394        0.1093774860318623    
     2.366369795198135        0.1077908363213961    
     2.373350237071875        0.1062246380210454    
     2.380330678945616        0.1046786332451063    
     2.387311120819357        0.1031525665565872    
     2.394291562693098        0.1016461849626618    
     2.401272004566839        0.1001592379092282    
     2.408252446440580        0.9869147727466038E-01
     2.415232888314320        0.9724265736277039E-01
     2.422213330188061        0.9581253489502137E-01
     2.429193772061802        0.9440086900204216E-01
     2.436174213935543        0.9300742121446430E-01
     2.443154655809284        0.9163195545313724E-01
     2.450135097683024        0.9027423801871112E-01
     2.457115539556765        0.8893403758070186E-01
     2.464095981430506        0.8761112516599866E-01
     2.471076423304247        0.8630527414688687E-01
     2.478056865177988        0.8501626022855320E-01
     2.485037307051728        0.8374386143621167E-01
     2.492017748925469        0.8248785810179829E-01
     2.498998190799210        0.8124803285028383E-01
     2.505978632672951        0.8002417058559855E-01
     2.512959074546692        0.7881605847623818E-01
     2.519939516420433        0.7762348594060756E-01
     2.526919958294173        0.7644624463203231E-01
     2.533900400167914        0.7528412842352648E-01
     2.540880842041655        0.7413693339224393E-01
     2.547861283915396        0.7300445780384904E-01
     2.554841725789136        0.7188650209658745E-01
     2.561822167662877        0.7078286886522191E-01
     2.568802609536618        0.6969336284468483E-01
     2.575783051410359        0.6861779089373909E-01
     2.582763493284100        0.6755596197842850E-01
     2.589743935157840        0.6650768715541841E-01
     2.596724377031582        0.6547277955518846E-01
     2.603704818905322        0.6445105436514219E-01
     2.610685260779063        0.6344232881270986E-01
     2.617665702652804        0.6244642214830300E-01
     2.624646144526545        0.6146315562825140E-01
     2.631626586400285        0.6049235249756026E-01
     2.638607028274026        0.5953383797281969E-01
     2.645587470147767        0.5858743922496115E-01
     2.652567912021508        0.5765298536201799E-01
     2.659548353895249        0.5673030741181136E-01
     2.666528795768989        0.5581923830465374E-01
     2.673509237642730        0.5491961285608932E-01
     2.680489679516471        0.5403126774956733E-01
     2.687470121390212        0.5315404151915745E-01
     2.694450563263953        0.5228777453215114E-01
     2.701431005137694        0.5143230897183881E-01
     2.708411447011434        0.5058748882019600E-01
     2.715391888885175        0.4975315984060044E-01
     2.722372330758916        0.4892916956055691E-01
     2.729352772632657        0.4811536725440866E-01
     2.736333214506398        0.4731160392614503E-01
     2.743313656380138        0.4651773229216651E-01
     2.750294098253879        0.4573360676409675E-01
     2.757274540127620        0.4495908343157604E-01
     2.764254982001361        0.4419402004512521E-01
     2.771235423875102        0.4343827599902221E-01
     2.778215865748842        0.4269171231419359E-01
     2.785196307622583        0.4195419162113394E-01
     2.792176749496324        0.4122557814286512E-01
     2.799157191370065        0.4050573767790353E-01
     2.806137633243805        0.3979453758326815E-01
     2.813118075117547        0.3909184675751752E-01
     2.820098516991287        0.3839753562381831E-01
     2.827078958865028        0.3771147611303823E-01
     2.834059400738769        0.3703354164688918E-01
     2.841039842612510        0.3636360712109215E-01
     2.848020284486251        0.3570154888857737E-01
     2.855000726359991        0.3504724474273548E-01
     2.861981168233732        0.3440057390072709E-01
     2.868961610107473        0.3376141698676228E-01
     2.875942051981214        0.3312965601547969E-01
     2.882922493854954        0.3250517437534952E-01
     2.889902935728696        0.3188785681214423E-01
     2.896883377602436        0.3127758941245074E-01
     2.903863819476177        0.3067425958719998E-01
     2.910844261349918        0.3007775605528359E-01
     2.917824703223659        0.2948796882720422E-01
     2.924805145097400        0.2890478918882222E-01
     2.931785586971140        0.2832810968513520E-01
     2.938766028844881        0.2775782410408964E-01
     2.945746470718622        0.2719382746049655E-01
     2.952726912592363        0.2663601597999083E-01
     2.959707354466103        0.2608428708309571E-01
     2.966687796339844        0.2553853936933726E-01
     2.973668238213585        0.2499867260139895E-01
     2.980648680087326        0.2446458768939258E-01
     2.987629121961067        0.2393618667518943E-01
     2.994609563834807        0.2341337271685321E-01
     3.001590005708549        0.2289605007315864E-01
     3.008570447582289        0.2238412408814247E-01
     3.015550889456030        0.2187750117578979E-01
     3.022531331329771        0.2137608880479474E-01
     3.029511773203512        0.2087979548341345E-01
     3.036492215077252        0.2038853074444541E-01
     3.043472656950993        0.1990220513023327E-01
     3.050453098824734        0.1942073017781649E-01
     3.057433540698475        0.1894401840416902E-01
     3.064413982572216        0.1847198329152772E-01
     3.071394424445956        0.1800453927286834E-01
     3.078374866319697        0.1754160171740928E-01
     3.085355308193438        0.1708308691626949E-01
     3.092335750067179        0.1662891206822015E-01
     3.099316191940920        0.1617899526553494E-01
     3.106296633814661        0.1573325547997649E-01
     3.113277075688401        0.1529161254885147E-01
     3.120257517562142        0.1485398716119399E-01
     3.127237959435883        0.1442030084405750E-01
     3.134218401309624        0.1399047594891361E-01
     3.141198843183365        0.1356443563816858E-01
     3.148179285057105        0.1314210387178406E-01
     3.155159726930846        0.1272340539407316E-01
     3.162140168804587        0.1230826573363144E-01
     3.169120610678328        0.1189661153112907E-01
     3.176101052552069        0.1148837302079293E-01
     3.183081494425809        0.1108349176565719E-01
     3.190061936299550        0.1068193399252873E-01
     3.197042378173291        0.1028370582023832E-01
     3.204022820047032        0.9888865915551031E-02
     3.211003261920772        0.9497532993583847E-02
     3.217983703794514        0.9109887712781477E-02
     3.224964145668254        0.8726169815722081E-02
     3.231944587541995        0.8346671846088279E-02
     3.238925029415736        0.7971730755562142E-02
     3.245905471289477        0.7601718482919372E-02
     3.252885913163218        0.7237032306137143E-02
     3.259866355036958        0.6878085513088882E-02
     3.266846796910699        0.6525298732898855E-02
     3.273827238784440        0.6179092119548988E-02
     3.280807680658181        0.5839878473936132E-02
     3.287788122531921        0.5508057320058309E-02
     3.294768564405663        0.5184009906054193E-02
     3.301749006279403        0.4868095073934618E-02
     3.308729448153144        0.4560645927249185E-02
     3.315709890026885        0.4261967219548366E-02
     3.322690331900626        0.3972333385362729E-02
     3.329670773774366        0.3691987137506742E-02
     3.336651215648107        0.3421138558415836E-02
     3.343631657521848        0.3159964618048751E-02
     3.350612099395589        0.2908609055906580E-02
     3.357592541269330        0.2667182569582855E-02
     3.364572983143070        0.2435763256539822E-02
     3.371553425016811        0.2214397259244761E-02
     3.378533866890552        0.2003099566017969E-02
     3.385514308764293        0.1801854920471830E-02
     3.392494750638034        0.1610618790448312E-02
     3.399475192511775        0.1429318341621303E-02
     3.406455634385515        0.1257853349028412E-02
     3.413436076259256        0.1096096957332505E-02
     3.420416518132997        0.9438961592028700E-03
     3.427396960006738        0.8010717832931093E-03
     3.434377401880479        0.6674176308897873E-03
     3.441357843754219        0.5426980845673779E-03
     3.448338285627960        0.4266428024286511E-03
     3.455318727501701        0.3189353362820602E-03
     3.462299169375442        0.2191873605546835E-03
     3.469279611249183        0.1268722252879430E-03
     3.476260053122923        0.4108781946260528E-04
     3.483240494996664         0.000000000000000    
  0  5  1  0  2.000000   #orbital l, n, z, is_polarized, population
 500    0.1761660769755116E-01     8.790687241078031     # npts, delta, cutoff
     0.000000000000000        0.5793909162088751E-01
    0.1761660769755116E-01    0.5829687762053008E-01
    0.3523321539510232E-01    0.5937123489712435E-01