<preamble>

<basis_specs>
===============================================================================
Zn                   Z=  30    Mass=  65.380        Charge= 0.17977+309
Lmxo=2 Lmxkb= 2    BasisType=split      Semic=T
L=0  Nsemic=1  Cnfigmx=4
          i=1  nzeta=1  polorb=0  (3s)  (semicore shell)
            splnorm:   0.15000    
               vcte:    40.000    
               rinn:    1.9422    
               qcoe:    0.0000    
               qyuk:    0.0000    
               qwid:   0.10000E-01
                rcs:    2.1559    
            lambdas:    1.0000    
          i=2  nzeta=2  polorb=0  (4s)  (to be polarized non-perturbatively)
            splnorm:   0.15000    
               vcte:    40.000    
               rinn:    5.3004    
               qcoe:    0.0000    
               qyuk:    0.0000    
               qwid:   0.10000E-01
                rcs:    5.8893      4.0405    
            lambdas:    1.0000      1.0000    
L=1  Nsemic=1  Cnfigmx=4
          i=1  nzeta=1  polorb=0  (3p)  (semicore shell)
            splnorm:   0.15000    
               vcte:    40.000    
               rinn:    2.1539    
               qcoe:    0.0000    
               qyuk:    0.0000    
               qwid:   0.10000E-01
                rcs:    2.3933    
            lambdas:    1.0000    
          i=2  nzeta=1  polorb=0  (4p)  (non-perturbative polarization shell)
            splnorm:   0.15000    
               vcte:    40.000    
               rinn:    5.3057    
               qcoe:    0.0000    
               qyuk:    0.0000    
               qwid:   0.10000E-01
                rcs:    5.8893    
            lambdas:    1.0000    
L=2  Nsemic=0  Cnfigmx=3
          i=1  nzeta=2  polorb=0  (3d)
            splnorm:   0.15000    
               vcte:    40.000    
               rinn:    3.4241    
               qcoe:    0.0000    
               qyuk:    0.0000    
               qwid:   0.10000E-01
                rcs:    3.8046      2.1974    
            lambdas:    1.0000      1.0000    
-------------------------------------------------------------------------------
L=0  Nkbl=2  erefs: 0.17977+309 0.17977+309
L=1  Nkbl=2  erefs: 0.17977+309 0.17977+309
L=2  Nkbl=1  erefs: 0.17977+309
===============================================================================
</basis_specs>

<pseudopotential_header>
 Zn pb nrl pcec
 ONCVPSP-3.2017-10-31Hamann's oncvpsp                        
 3s 2.00  r= 1.36/3p 6.00  r= 1.66/3d10.00  r= 1.85/                    3s:3p:3d:4s:
</pseudopotential_header>
</preamble>
Zn                            # Symbol
Zn                            # Label
   30                         # Atomic number
     20.0000000000                             # Valence charge
     65.3800000000        # Mass 
     477.669646485        # Self energy 
   2   7                      # Lmax for basis, no. of nl orbitals 
   2   6                      # Lmax for projectors, no. of nl KB projectors
# PAOs:__________________________
  0  3  1  0  2.000000   #orbital l, n, z, is_polarized, population
 500    0.4320414120830261E-02     2.155886646294300     # npts, delta, cutoff
     0.000000000000000         3.611856344045380    
    0.4320414120830261E-02     3.611625639951612    
    0.8640828241660523E-02     3.611293617297607    
    0.1296124236249079E-01     3.610740497353166    
    0.1728165648332105E-01     3.609966308426333    
    0.2160207060415131E-01     3.608971173734135    
    0.2592248472498157E-01     3.607755264929022    
    0.3024289884581183E-01     3.606318795432417    
    0.3456331296664209E-01     3.604662018738173    
    0.3888372708747236E-01     3.602785227814902    
    0.4320414120830261E-01     3.600688754832991    
    0.4752455532913288E-01     3.598372971005094    
    0.5184496944996314E-01     3.595838286469559    
    0.5616538357079340E-01     3.593085150189677    
    0.6048579769162366E-01     3.590114049856937    
    0.6480621181245393E-01     3.586925511792848    
    0.6912662593328418E-01     3.583520100846342    
    0.7344704005411444E-01     3.579898420285311    
    0.7776745417494471E-01     3.576061111681200    
    0.8208786829577497E-01     3.572008854786098    
    0.8640828241660523E-01     3.567742367401874    
    0.9072869653743550E-01     3.563262405240945    
    0.9504911065826575E-01     3.558569761778488    
    0.9936952477909601E-01     3.553665268095724    
    0.1036899388999263         3.548549792714150    
    0.1080103530207565         3.543224241420388    
    0.1123307671415868         3.537689557081526    
    0.1166511812624171         3.531946719450699    
    0.1209715953832473         3.525996744962731    
    0.1252920095040776         3.519840686519621    
    0.1296124236249079         3.513479633265713    
    0.1339328377457381         3.506914710352370    
    0.1382532518665684         3.500147078691919    
    0.1425736659873986         3.493177934700792    
    0.1468940801082289         3.486008510031634    
    0.1512144942290591         3.478640071294242    
    0.1555349083498894         3.471073919765219    
    0.1598553224707197         3.463311391086193    
    0.1641757365915499         3.455353854950481    
    0.1684961507123802         3.447202714778091    
    0.1728165648332105         3.438859407379001    
    0.1771369789540407         3.430325402604571    
    0.1814573930748710         3.421602202987108    
    0.1857778071957013         3.412691343367446    
    0.1900982213165315         3.403594390510584    
    0.1944186354373618         3.394312942709313    
    0.1987390495581920         3.384848629375846    
    0.2030594636790223         3.375203110621489    
    0.2073798777998526         3.365378076824364    
    0.2117002919206828         3.355375248185221    
    0.2160207060415131         3.345196374271471    
    0.2203411201623433         3.334843233549476    
    0.2246615342831736         3.324317632905196    
    0.2289819484040038         3.313621407153390    
    0.2333023625248341         3.302756418535458    
    0.2376227766456644         3.291724556206086    
    0.2419431907664946         3.280527735708942    
    0.2462636048873249         3.269167898441546    
    0.2505840190081552         3.257647011109611    
    0.2549044331289854         3.245967065171050    
    0.2592248472498157         3.234130076269931    
    0.2635452613706459         3.222138083660628    
    0.2678656754914762         3.209993149622515    
    0.2721860896123064         3.197697358865484    
    0.2765065037331367         3.185252817926585    
    0.2808269178539670         3.172661654558211    
    0.2851473319747972         3.159926017108109    
    0.2894677460956275         3.147048073891636    
    0.2937881602164578         3.134030012556635    
    0.2981085743372880         3.120874039441327    
    0.3024289884581183         3.107582378925652    
    0.3067494025789486         3.094157272776455    
    0.3110698166997788         3.080600979486956    
    0.3153902308206091         3.066915773610980    
    0.3197106449414394         3.053103945092353    
    0.3240310590622696         3.039167798589941    
    0.3283514731830999         3.025109652798817    
    0.3326718873039302         3.010931839768002    
    0.3369923014247604         2.996636704215272    
    0.3413127155455907         2.982226602839466    
    0.3456331296664209         2.967703903630860    
    0.3499535437872512         2.953070985179990    
    0.3542739579080814         2.938330235985499    
    0.3585943720289117         2.923484053761386    
    0.3629147861497420         2.908534844744237    
    0.3672352002705722         2.893485023000846    
    0.3715556143914025         2.878337009736711    
    0.3758760285122327         2.863093232605886    
    0.3801964426330630         2.847756125022629    
    0.3845168567538932         2.832328125475303    
    0.3888372708747235         2.816811676842984    
    0.3931576849955538         2.801209225715164    
    0.3974780991163840         2.785523227645827    
    0.4017985132372143         2.769756134239376    
    0.4061189273580446         2.753910393374710    
    0.4104393414788748         2.737988459763653    
    0.4147597555997051         2.721992788488254    
    0.4190801697205354         2.705925834347784    
    0.4234005838413656         2.689790051211582    
    0.4277209979621959         2.673587891378067    
    0.4320414120830262         2.657321804940234    
    0.4363618262038564         2.640994239157958    
    0.4406822403246867         2.624607637837317    
    0.4450026544455170         2.608164440717300    
    0.4493230685663472         2.591667082864089    
    0.4536434826871775         2.575117994073140    
    0.4579638968080077         2.558519598279323    
    0.4622843109288380         2.541874312975266    
    0.4666047250496682         2.525184548638149    
    0.4709251391704985         2.508452708165026    
    0.4752455532913288         2.491681186316905    
    0.4795659674121590         2.474872369171640    
    0.4838863815329893         2.458028633585803    
    0.4882067956538195         2.441152346665601    
    0.4925272097746498         2.424245865246906    
    0.4968476238954800         2.407311535384474    
    0.5011680380163104         2.390351691850411    
    0.5054884521371406         2.373368657641879    
    0.5098088662579708         2.356364743498084    
    0.5141292803788011         2.339342247426529    
    0.5184496944996314         2.322303454238539    
    0.5227701086204616         2.305250635094006    
    0.5270905227412919         2.288186047055323    
    0.5314109368621222         2.271111932650466    
    0.5357313509829524         2.254030519445152    
    0.5400517651037827         2.236944019624000    
    0.5443721792246129         2.219854629580603    
    0.5486925933454432         2.202764529516444    
    0.5530130074662735         2.185675883048538    
    0.5573334215871038         2.168590836825707    
    0.5616538357079340         2.151511520153344    
    0.5659742498287642         2.134440044626599    
    0.5702946639495945         2.117378503771828    
    0.5746150780704248         2.100328972696189    
    0.5789354921912551         2.083293507745250    
    0.5832559063120853         2.066274146168512    
    0.5875763204329155         2.049272905792664    
    0.5918967345537458         2.032291784702481    
    0.5962171486745761         2.015332760929219    
    0.6005375627954064         1.998397792146372    
    0.6048579769162366         1.981488815372691    
    0.6091783910370668         1.964607746682296    
    0.6134988051578971         1.947756480921811    
    0.6178192192787274         1.930936891434378    
    0.6221396333995577         1.914150829790443    
    0.6264600475203879         1.897400125525232    
    0.6307804616412181         1.880686585882779    
    0.6351008757620484         1.864011995566457    
    0.6394212898828787         1.847378116495912    
    0.6437417040037090         1.830786687570315    
    0.6480621181245392         1.814239424437896    
    0.6523825322453695         1.797738019271656    
    0.6567029463661997         1.781284140551272    
    0.6610233604870300         1.764879432851088    
    0.6653437746078603         1.748525516634214    
    0.6696641887286905         1.732223988052700    
    0.6739846028495208         1.715976418753755    
    0.6783050169703511         1.699784355692047    
    0.6826254310911813         1.683649320948061    
    0.6869458452120115         1.667572811552568    
    0.6912662593328418         1.651556299317205    
    0.6955866734536721         1.635601230671231    
    0.6999070875745024         1.619709026504493    
    0.7042275016953327         1.603881082016678    
    0.7085479158161628         1.588118766572899    
    0.7128683299369931         1.572423423565713    
    0.7171887440578234         1.556796370283643    
    0.7215091581786537         1.541238897786298    
    0.7258295722994840         1.525752270786208    
    0.7301499864203141         1.510337727537461    
    0.7344704005411444         1.494996479731267    
    0.7387908146619747         1.479729712398571    
    0.7431112287828050         1.464538583819846    
    0.7474316429036353         1.449424225442167    
    0.7517520570244655         1.434387741803745    
    0.7560724711452957         1.419430210466012    
    0.7603928852661260         1.404552681953442    
    0.7647132993869563         1.389756179701200    
    0.7690337135077865         1.375041700010812    
    0.7733541276286168         1.360410212013947    
    0.7776745417494471         1.345862657644507    
    0.7819949558702773         1.331399951619111    
    0.7863153699911076         1.317022981426145    
    0.7906357841119378         1.302732607323519    
    0.7949561982327681         1.288529662345208    
    0.7992766123535984         1.274414952316804    
    0.8035970264744287         1.260389255880051    
    0.8079174405952589         1.246453324526673    
    0.8122378547160891         1.232607882641366    
    0.8165582688369194         1.218853627554321    
    0.8208786829577497         1.205191229603096    
    0.8251990970785800         1.191621332204163    
    0.8295195111994103         1.178144551934020    
    0.8338399253202404         1.164761478620028    
    0.8381603394410707         1.151472675441024    
    0.8424807535619010         1.138278679037653    
    0.8468011676827313         1.125179999632645    
    0.8511215818035615         1.112177121160736    
    0.8554419959243917         1.099270501408635    
    0.8597624100452220         1.086460572164645    
    0.8640828241660523         1.073747739378171    
    0.8684032382868826         1.061132383328981    
    0.8727236524077128         1.048614858806075    
    0.8770440665285431         1.036195495296365    
    0.8813644806493733         1.023874597182702    
    0.8856848947702036         1.011652443951521    
    0.8900053088910339        0.9995292904097367    
    0.8943257230118641        0.9875053669108336    
    0.8986461371326944        0.9755808795901327    
    0.9029665512535247        0.9637560106087739    
    0.9072869653743549        0.9520309184066431    
    0.9116073794951851        0.9404057379636895    
    0.9159277936160154        0.9288805810696201    
    0.9202482077368457        0.9174555366018017    
    0.9245686218576760        0.9061306708108917    
    0.9288890359785063        0.8949060276142968    
    0.9332094500993364        0.8837816288969086    
    0.9375298642201667        0.8727574748189593    
    0.9418502783409970        0.8618335441308308    
    0.9461706924618273        0.8510097944942492    
    0.9504911065826576        0.8402861628098601    
    0.9548115207034877        0.8296625655506804    
    0.9591319348243180        0.8191388991011004    
    0.9634523489451483        0.8087150401012811    
    0.9677727630659786        0.7983908457963645    
    0.9720931771868089        0.7881661543903280    
    0.9764135913076391        0.7780407854040836    
    0.9807340054284693        0.7680145400373598    
    0.9850544195492996        0.7580872015341882    
    0.9893748336701299        0.7482585355514535    
    0.9936952477909601        0.7385282905302040    
    0.9980156619117904        0.7288961980693804    
     1.002336076032621        0.7193619733015089    
     1.006656490153451        0.7099253152700401    
     1.010976904274281        0.7005859073079227    
     1.015297318395112        0.6913434174170492    
     1.019617732515942        0.6821974986482016    
     1.023938146636772        0.6731477894810832    
     1.028258560757602        0.6641939142041736    
     1.032578974878432        0.6553354832938802    
     1.036899388999263        0.6465720937927435    
     1.041219803120093        0.6379033296863800    
     1.045540217240923        0.6293287622786160    
     1.049860631361754        0.6208479505647064    
     1.054181045482584        0.6124604416022152    
     1.058501459603414        0.6041657708791135    
     1.062821873724244        0.5959634626789860    
     1.067142287845074        0.5878530304429743    
     1.071462701965905        0.5798339771279964    
     1.075783116086735        0.5719057955612443    
     1.080103530207565        0.5640679687905348    
     1.084423944328396        0.5563199704301470    
     1.088744358449226        0.5486612650021658    
     1.093064772570056        0.5410913082729493    
     1.097385186690886        0.5336095475843761    
     1.101705600811717        0.5262154221799706    
     1.106026014932547        0.5189083635255326    
     1.110346429053377        0.5116877956239593    
     1.114666843174208        0.5045531353244203    
     1.118987257295038        0.4975037926255820    
     1.123307671415868        0.4905391709725688    
     1.127628085536698        0.4836586675478694    
     1.131948499657528        0.4768616735560009    
     1.136268913778359        0.4701475745015188    
     1.140589327899189        0.4635157504607419    
     1.144909742020019        0.4569655763470306    
     1.149230156140850        0.4504964221692438    
     1.153550570261680        0.4441076532837055    
     1.157870984382510        0.4377986306397508    
     1.162191398503340        0.4315687110182979    
     1.166511812624171        0.4254172472639651    
     1.170832226745001        0.4193435885107464    
     1.175152640865831        0.4133470804008733    
     1.179473054986661        0.4074270652972472    
     1.183793469107492        0.4015828824895320    
     1.188113883228322        0.3958138683937476    
     1.192434297349152        0.3901193567455122    
     1.196754711469982        0.3844986787871685    
     1.201075125590813        0.3789511634488062    
     1.205395539711643        0.3734761375231100    
     1.209715953832473        0.3680729258343961    
     1.214036367953303        0.3627408514019844    
     1.218356782074134        0.3574792355976914    
     1.222677196194964        0.3522873982979055    
     1.226997610315794        0.3471646580303548    
     1.231318024436624        0.3421103321155333    
     1.235638438557455        0.3371237368030407    
     1.239958852678285        0.3322041874030216    
     1.244279266799115        0.3273509984128733    
     1.248599680919946        0.3225634836391903    
     1.252920095040776        0.3178409563153174    
     1.257240509161606        0.3131827292146523    
     1.261560923282436        0.3085881147596897    
     1.265881337403267        0.3040564251271224    
     1.270201751524097        0.2995869723491209    
     1.274522165644927        0.2951790684109553    
     1.278842579765757        0.2908320253450418    
     1.283162993886588        0.2865451553216612    
     1.287483408007418        0.2823177707364868    
     1.291803822128248        0.2781491842950075    
     1.296124236249078        0.2740387090940386    
     1.300444650369909        0.2699856587004653    
     1.304765064490739        0.2659893472273434    
     1.309085478611569        0.2620490894074493    
     1.313405892732399        0.2581642006593681    
     1.317726306853230        0.2543339971085035    
     1.322046720974060        0.2505577957111676    
     1.326367135094890        0.2468349143929919    
     1.330687549215721        0.2431646721816614    
     1.335007963336551        0.2395463893653911    
     1.339328377457381        0.2359793870858107    
     1.343648791578211        0.2324629871332795    
     1.347969205699042        0.2289965118248687    
     1.352289619819872        0.2255792843819624    
     1.356610033940702        0.2222106301071551    
     1.360930448061532        0.2188898775460671    
     1.365250862182363        0.2156163597461139    
     1.369571276303193        0.2123894154349394    
     1.373891690424023        0.2092083900510117    
     1.378212104544853        0.2060726366392223    
     1.382532518665684        0.2029815166216517    
     1.386852932786514        0.1999343998338731    
     1.391173346907344        0.1969306643401215    
     1.395493761028174        0.1939696961518707    
     1.399814175149005        0.1910508888518644    
     1.404134589269835        0.1881736436160261    
     1.408455003390665        0.1853373691854380    
     1.412775417511495        0.1825414818317656    
     1.417095831632326        0.1797854053293635    
     1.421416245753156        0.1770685708485534    
     1.425736659873986        0.1743904168748706    
     1.430057073994817        0.1717503891359236    
     1.434377488115647        0.1691479405279858    
     1.438697902236477        0.1665825310403355    
     1.443018316357307        0.1640536276804620    
     1.447338730478138        0.1615607043994394    
     1.451659144598968        0.1591032420173205    
     1.455979558719798        0.1566807281487821    
     1.460299972840628        0.1542926571288074    
     1.464620386961459        0.1519385299385445    
     1.468940801082289        0.1496178541313072    
     1.473261215203119        0.1473301437589408    
     1.477581629323949        0.1450749192983392    
     1.481902043444780        0.1428517075782394    
     1.486222457565610        0.1406600417062403    
     1.490542871686440        0.1384994609963085    
     1.494863285807271        0.1363695108964978    
     1.499183699928101        0.1342697429170581    
     1.503504114048931        0.1321997145588000    
     1.507824528169761        0.1301589892420654    
     1.512144942290591        0.1281471362359596    
     1.516465356411422        0.1261637305880609    
     1.520785770532252        0.1242083530544060    
     1.525106184653082        0.1222805900301732    
     1.529426598773913        0.1203800334806706    
     1.533747012894743        0.1185062808728637    
     1.538067427015573        0.1166589351072158    
     1.542387841136403        0.1148376044502492    
     1.546708255257234        0.1130419024674960    
     1.551028669378064        0.1112714479569868    
     1.555349083498894        0.1095258648831649    
     1.559669497619724        0.1078047823114055    
     1.563989911740555        0.1061078343431031    
     1.568310325861385        0.1044346600512334    
     1.572630739982215        0.1027849034164724    
     1.576951154103045        0.1011582132637613    
     1.581271568223876        0.9955424319963523E-01
     1.585591982344706        0.9797265154995352E-01
     1.589912396465536        0.9641310129825782E-01
     1.594232810586367        0.9487526002452425E-01
     1.598553224707197        0.9335879984473812E-01
     1.602873638828027        0.9186339735089982E-01
     1.607194052948857        0.9038873355173489E-01
     1.611514467069687        0.8893449381354537E-01
     1.615834881190518        0.8750036780187948E-01
     1.620155295311348        0.8608604942419192E-01
     1.624475709432178        0.8469123677259031E-01
     1.628796123553009        0.8331563206749108E-01
     1.633116537673839        0.8195894160084043E-01
     1.637436951794669        0.8062087568139696E-01
     1.641757365915499        0.7930114857961526E-01
     1.646077780036330        0.7799947847254272E-01
     1.650398194157160        0.7671558739197618E-01
     1.654718608277990        0.7544920117114909E-01
     1.659039022398821        0.7420004939047556E-01
     1.663359436519651        0.7296786532618633E-01
     1.667679850640481        0.7175238589749851E-01
     1.672000264761311        0.7055335161982679E-01
     1.676320678882141        0.6937050655081774E-01
     1.680641093002972        0.6820359824177757E-01
     1.684961507123802        0.6705237769024644E-01
     1.689281921244632        0.6591659929012419E-01
     1.693602335365463        0.6479602077501824E-01
     1.697922749486293        0.6369040318251611E-01
     1.702243163607123        0.6259951080274605E-01
     1.706563577727953        0.6152311112925205E-01
     1.710883991848783        0.6046097481938135E-01
     1.715204405969614        0.5941287564510147E-01
     1.719524820090444        0.5837859044663742E-01
     1.723845234211274        0.5735789908917312E-01
     1.728165648332105        0.5635058441904518E-01
     1.732486062452935        0.5535643222015513E-01
     1.736806476573765        0.5437523117125029E-01
     1.741126890694595        0.5340677280341888E-01
     1.745447304815426        0.5245085145817917E-01
     1.749767718936256        0.5150726424613931E-01
     1.754088133057086        0.5057581100558484E-01
     1.758408547177917        0.4965629426247693E-01
     1.762728961298747        0.4874851919026563E-01
     1.767049375419577        0.4785229357007949E-01
     1.771369789540407        0.4696742775179055E-01
     1.775690203661237        0.4609373461707218E-01
     1.780010617782068        0.4523102953916002E-01
     1.784331031902898        0.4437913034607869E-01
     1.788651446023728        0.4353785728453316E-01
     1.792971860144559        0.4270703298144668E-01
     1.797292274265389        0.4188648240517872E-01
     1.801612688386219        0.4107603283463330E-01
     1.805933102507049        0.4027551382201362E-01
     1.810253516627879        0.3948475715871643E-01
     1.814573930748710        0.3870359683934867E-01
     1.818894344869540        0.3793186902613926E-01
     1.823214758990370        0.3716941201801093E-01
     1.827535173111201        0.3641606621574608E-01
     1.831855587232031        0.3567167408390384E-01
     1.836176001352861        0.3493608012687468E-01
     1.840496415473691        0.3420913086747075E-01
     1.844816829594522        0.3349067479127172E-01
     1.849137243715352        0.3278056232467826E-01
     1.853457657836182        0.3207864580284005E-01
     1.857778071957013        0.3138477943985559E-01
     1.862098486077843        0.3069881930693422E-01
     1.866418900198673        0.3002062329168930E-01
     1.870739314319503        0.2935005107320327E-01
     1.875059728440333        0.2868696409522882E-01
     1.879380142561164        0.2803122554409287E-01
     1.883700556681994        0.2738270028064498E-01
     1.888020970802824        0.2674125485748592E-01
     1.892341384923655        0.2610675747563757E-01
     1.896661799044485        0.2547907795743573E-01
     1.900982213165315        0.2485808771774820E-01
     1.905302627286145        0.2424365974221191E-01
     1.909623041406975        0.2363566855571778E-01
     1.913943455527806        0.2303399019740850E-01
     1.918263869648636        0.2243850219517248E-01
     1.922584283769466        0.2184908353382119E-01
     1.926904697890297        0.2126561464685455E-01
     1.931225112011127        0.2068797738091524E-01
     1.935545526131957        0.2011605496909008E-01
     1.939865940252787        0.1954973200920027E-01
     1.944186354373618        0.1898889444131211E-01
     1.948506768494448        0.1843342952231685E-01
     1.952827182615278        0.1788322579889715E-01
     1.957147596736108        0.1733817309237660E-01
     1.961468010856939        0.1679816255356965E-01
     1.965788424977769        0.1626308762180723E-01
     1.970108839098599        0.1573284834079600E-01
     1.974429253219429        0.1520736089476407E-01
     1.978749667340260        0.1468657061945486E-01
     1.983070081461090        0.1417046459407181E-01
     1.987390495581920        0.1365908071175921E-01
     1.991710909702751        0.1315251202867469E-01
     1.996031323823581        0.1265090666169354E-01
     2.000351737944411        0.1215446421439784E-01
     2.004672152065242        0.1166342986593018E-01
     2.008992566186071        0.1117808712979537E-01
     2.013312980306902        0.1069875006486374E-01
     2.017633394427732        0.1022575549286684E-01
     2.021953808548562        0.9759455585369822E-02
     2.026274222669393        0.9300211036905433E-02
     2.030594636790223        0.8848384936324102E-02
     2.034915050911053        0.8404337376754440E-02
     2.039235465031883        0.7968420798078697E-02
     2.043555879152714        0.7540976027144165E-02
     2.047876293273544        0.7122328964640052E-02
     2.052196707394374        0.6712787859542507E-02
     2.056517121515204        0.6312641109404275E-02
     2.060837535636035        0.5922155525414776E-02
     2.065157949756865        0.5541575003751627E-02
     2.069478363877695        0.5171119548279616E-02
     2.073798777998526        0.4810984593476795E-02
     2.078119192119356        0.4461340580133736E-02
     2.082439606240186        0.4122332739489599E-02
     2.086760020361016        0.3794081043725903E-02
     2.091080434481846        0.3476680281760298E-02
     2.095400848602677        0.3170200218556749E-02
     2.099721262723507        0.2874685792880847E-02
     2.104041676844338        0.2590157301287822E-02
     2.108362090965167        0.2316610502779700E-02
     2.112682505085998        0.2054016554853637E-02
     2.117002919206828        0.1802321649650002E-02
     2.121323333327658        0.1561446142925014E-02
     2.125643747448489        0.1331282825736548E-02
     2.129964161569319        0.1111693705230380E-02
     2.134284575690149        0.9025040563588269E-03
     2.138604989810979        0.7034910904656716E-03
     2.142925403931810        0.5143608258781366E-03
     2.147245818052640        0.3346948056947861E-03
     2.151566232173470        0.1637980837834175E-03
     2.155886646294300         0.000000000000000    
  0  4  1  0  2.000000   #orbital l, n, z, is_polarized, population
 500    0.1180215847010959E-01     5.889277076584687     # npts, delta, cutoff
     0.000000000000000         1.872546080437211    
    0.1180215847010959E-01     1.871671737332637    
    0.2360431694021919E-01     1.869237185194522    