
     Program PWSCF v.7.3 starts on  5Jan2024 at  8:18:40 

     This program is part of the open-source Quantum ESPRESSO suite
     for quantum simulation of materials; please cite
         "P. Giannozzi et al., J. Phys.:Condens. Matter 21 395502 (2009);
         "P. Giannozzi et al., J. Phys.:Condens. Matter 29 465901 (2017);
         "P. Giannozzi et al., J. Chem. Phys. 152 154105 (2020);
          URL http://www.quantum-espresso.org", 
     in publications or presentations arising from this work. More details at
     http://www.quantum-espresso.org/quote

     Parallel version (MPI), running on   128 processors

     MPI processes distributed on     2 nodes
     481923 MiB available memory on the printing compute node when the environment starts
 
     Reading input from GaAs.vcrlx.in

     Current dimensions of program PWSCF are:
     Max number of different atomic species (ntypx) = 10
     Max number of k-points (npk) =  40000
     Max angular momentum in pseudopotentials (lmaxx) =  4
     Message from routine setup:
     using ibrav=0 with symmetry is DISCOURAGED, use correct ibrav instead
     -----------------------------------------------------------
     List of the nearest neighbors for inter-site interactions V
     -----------------------------------------------------------
     atom 1:  1,  atom 2:  2,    -1     0     0
     atom 1:  1,  atom 2:  2,     0    -1     0
     atom 1:  1,  atom 2:  2,     0     0    -1
     atom 1:  1,  atom 2:  2,     0     0     0
     atom 1:  2,  atom 2:  1,     0     0     0
     atom 1:  2,  atom 2:  1,     0     0     1
     atom 1:  2,  atom 2:  1,     0     1     0
     atom 1:  2,  atom 2:  1,     1     0     0
 
 
     K-points division:     npool     =      16
     R & G space division:  proc/nbgrp/npool/nimage =       8
     Subspace diagonalization in iterative solution of the eigenvalue problem:
     a serial algorithm will be used

 
     Parallelization info
     --------------------
     sticks:   dense  smooth     PW     G-vecs:    dense   smooth      PW
     Min         194     194     56                 5101     5101     796
     Max         195     195     57                 5105     5105     797
     Sum        1555    1555    451                40821    40821    6375
 
     Using Slab Decomposition
 


     bravais-lattice index     =            0
     lattice parameter (alat)  =       7.5264  a.u.
     unit-cell volume          =     301.4673 (a.u.)^3
     number of atoms/cell      =            2
     number of atomic types    =            2
     number of electrons       =        28.00
     number of Kohn-Sham states=           24
     kinetic-energy cutoff     =     100.0000  Ry
     charge density cutoff     =     400.0000  Ry
     scf convergence threshold =      1.0E-08
     mixing beta               =       0.7000
     number of iterations used =            8  plain     mixing
     energy convergence thresh.=      1.0E-04
     force convergence thresh. =      1.0E-03
     press convergence thresh. =      5.0E-01
     Exchange-correlation= PBE
                           (   1   4   3   4   0   0   0)
     nstep                     =           50


     celldm(1)=   7.526361  celldm(2)=   0.000000  celldm(3)=   0.000000
     celldm(4)=   0.000000  celldm(5)=   0.000000  celldm(6)=   0.000000

     crystal axes: (cart. coord. in units of alat)
               a(1) = (   0.707107   0.707107   0.000000 )  
               a(2) = (   0.000000   0.707107   0.707107 )  
               a(3) = (   0.707107   0.000000   0.707107 )  

     reciprocal axes: (cart. coord. in units 2 pi/alat)
               b(1) = (  0.707107  0.707107 -0.707107 )  
               b(2) = ( -0.707107  0.707107  0.707107 )  
               b(3) = (  0.707107 -0.707107  0.707107 )  


     PseudoPot. # 1 for Ga read from file:
     ~/pseudo/pseudodojo/nc_sr/Ga.upf
     MD5 check sum: Not computed, couldn't open file
     Pseudo is Norm-conserving + core correction, Zval = 13.0
     Generated using ONCVPSP code by D. R. Hamann
     Using radial grid of 1902 points,  6 beta functions with: 
                l(1) =   0
                l(2) =   0
                l(3) =   1
                l(4) =   1
                l(5) =   2
                l(6) =   2

     PseudoPot. # 2 for As read from file:
     ~/pseudo/pseudodojo/nc_sr/As.upf
     MD5 check sum: Not computed, couldn't open file
     Pseudo is Norm-conserving + core correction, Zval = 15.0
     Generated using ONCVPSP code by D. R. Hamann
     Using radial grid of 1358 points,  6 beta functions with: 
                l(1) =   0
                l(2) =   0
                l(3) =   1
                l(4) =   1
                l(5) =   2
                l(6) =   2

     atomic species   valence    mass     pseudopotential
     Ga               13.00    69.72300     Ga( 1.00)
     As               15.00    74.92160     As( 1.00)

     Starting magnetic structure 
     atomic species   magnetization
     Ga              0.000
     As              0.000

     24 Sym. Ops. (no inversion) found


                                    s                        frac. trans.

      isym =  1     identity                                     

 cryst.   s( 1) = (     1          0          0      )
                  (     0          1          0      )
                  (     0          0          1      )

 cart.    s( 1) = (  1.0000000  0.0000000  0.0000000 )
                  (  0.0000000  1.0000000  0.0000000 )
                  (  0.0000000  0.0000000  1.0000000 )


      isym =  2     180 deg rotation - cart. axis [0,0,1]        

 cryst.   s( 2) = (    -1          0          0      )
                  (    -1          0          1      )
                  (    -1          1          0      )

 cart.    s( 2) = ( -1.0000000  0.0000000  0.0000000 )
                  (  0.0000000 -1.0000000  0.0000000 )
                  (  0.0000000  0.0000000  1.0000000 )


      isym =  3     180 deg rotation - cart. axis [0,1,0]        

 cryst.   s( 3) = (     0          1         -1      )
                  (     1          0         -1      )
                  (     0          0         -1      )

 cart.    s( 3) = ( -1.0000000  0.0000000  0.0000000 )
                  (  0.0000000  1.0000000  0.0000000 )
                  (  0.0000000  0.0000000 -1.0000000 )


      isym =  4     180 deg rotation - cart. axis [1,0,0]        

 cryst.   s( 4) = (     0         -1          1      )
                  (     0         -1          0      )
                  (     1         -1          0      )

 cart.    s( 4) = (  1.0000000  0.0000000  0.0000000 )
                  (  0.0000000 -1.0000000  0.0000000 )
                  (  0.0000000  0.0000000 -1.0000000 )


      isym =  5     120 deg rotation - cart. axis [-1,-1,-1]     

 cryst.   s( 5) = (     0          0          1      )
                  (     1          0          0      )
                  (     0          1          0      )

 cart.    s( 5) = (  0.0000000  1.0000000  0.0000000 )
                  (  0.0000000  0.0000000  1.0000000 )
                  (  1.0000000  0.0000000  0.0000000 )


      isym =  6     120 deg rotation - cart. axis [-1,1,1]       

 cryst.   s( 6) = (     0          0         -1      )
                  (     0          1         -1      )
                  (     1          0         -1      )

 cart.    s( 6) = (  0.0000000 -1.0000000  0.0000000 )
                  (  0.0000000  0.0000000  1.0000000 )
                  ( -1.0000000  0.0000000  0.0000000 )


      isym =  7     120 deg rotation - cart. axis [1,1,-1]       

 cryst.   s( 7) = (     1         -1          0      )
                  (     0         -1          1      )
                  (     0         -1          0      )

 cart.    s( 7) = (  0.0000000  1.0000000  0.0000000 )
                  (  0.0000000  0.0000000 -1.0000000 )
                  ( -1.0000000  0.0000000  0.0000000 )


      isym =  8     120 deg rotation - cart. axis [1,-1,1]       

 cryst.   s( 8) = (    -1          1          0      )
                  (    -1          0          0      )
                  (    -1          0          1      )

 cart.    s( 8) = (  0.0000000 -1.0000000  0.0000000 )
                  (  0.0000000  0.0000000 -1.0000000 )
                  (  1.0000000  0.0000000  0.0000000 )


      isym =  9     120 deg rotation - cart. axis [1,1,1]        

 cryst.   s( 9) = (     0          1          0      )
                  (     0          0          1      )
                  (     1          0          0      )

 cart.    s( 9) = (  0.0000000  0.0000000  1.0000000 )
                  (  1.0000000  0.0000000  0.0000000 )
                  (  0.0000000  1.0000000  0.0000000 )


      isym = 10     120 deg rotation - cart. axis [-1,1,-1]      

 cryst.   s(10) = (     0         -1          0      )
                  (     1         -1          0      )
                  (     0         -1          1      )

 cart.    s(10) = (  0.0000000  0.0000000  1.0000000 )
                  ( -1.0000000  0.0000000  0.0000000 )
                  (  0.0000000 -1.0000000  0.0000000 )


      isym = 11     120 deg rotation - cart. axis [1,-1,-1]      

 cryst.   s(11) = (    -1          0          1      )
                  (    -1          1          0      )
                  (    -1          0          0      )

 cart.    s(11) = (  0.0000000  0.0000000 -1.0000000 )
                  ( -1.0000000  0.0000000  0.0000000 )
                  (  0.0000000  1.0000000  0.0000000 )


      isym = 12     120 deg rotation - cart. axis [-1,-1,1]      

 cryst.   s(12) = (     1          0         -1      )
                  (     0          0         -1      )
                  (     0          1         -1      )

 cart.    s(12) = (  0.0000000  0.0000000 -1.0000000 )
                  (  1.0000000  0.0000000  0.0000000 )
                  (  0.0000000 -1.0000000  0.0000000 )


      isym = 13     inv. 180 deg rotation - cart. axis [1,1,0]   

 cryst.   s(13) = (    -1          0          0      )
                  (    -1          1          0      )
                  (    -1          0          1      )

 cart.    s(13) = (  0.0000000 -1.0000000  0.0000000 )
                  ( -1.0000000  0.0000000  0.0000000 )
                  (  0.0000000  0.0000000  1.0000000 )


      isym = 14     inv. 180 deg rotation - cart. axis [1,-1,0]  

 cryst.   s(14) = (     1          0          0      )
                  (     0          0          1      )
                  (     0          1          0      )

 cart.    s(14) = (  0.0000000  1.0000000  0.0000000 )
                  (  1.0000000  0.0000000  0.0000000 )
                  (  0.0000000  0.0000000  1.0000000 )


      isym = 15     inv.  90 deg rotation - cart. axis [0,0,-1]  

 cryst.   s(15) = (     0          1         -1      )
                  (     0          0         -1      )
                  (     1          0         -1      )

 cart.    s(15) = (  0.0000000 -1.0000000  0.0000000 )
                  (  1.0000000  0.0000000  0.0000000 )
                  (  0.0000000  0.0000000 -1.0000000 )


      isym = 16     inv.  90 deg rotation - cart. axis [0,0,1]   

 cryst.   s(16) = (     0         -1          1      )
                  (     1         -1          0      )
                  (     0         -1          0      )

 cart.    s(16) = (  0.0000000  1.0000000  0.0000000 )
                  ( -1.0000000  0.0000000  0.0000000 )
                  (  0.0000000  0.0000000 -1.0000000 )


      isym = 17     inv. 180 deg rotation - cart. axis [1,0,1]   

 cryst.   s(17) = (     1          0         -1      )
                  (     0          1         -1      )
                  (     0          0         -1      )

 cart.    s(17) = (  0.0000000  0.0000000 -1.0000000 )
                  (  0.0000000  1.0000000  0.0000000 )
                  ( -1.0000000  0.0000000  0.0000000 )


      isym = 18     inv. 180 deg rotation - cart. axis [-1,0,1]  

 cryst.   s(18) = (     0          1          0      )
                  (     1          0          0      )
                  (     0          0          1      )

 cart.    s(18) = (  0.0000000  0.0000000  1.0000000 )
                  (  0.0000000  1.0000000  0.0000000 )
                  (  1.0000000  0.0000000  0.0000000 )


      isym = 19     inv.  90 deg rotation - cart. axis [0,1,0]   

 cryst.   s(19) = (    -1          0          1      )
                  (    -1          0          0      )
                  (    -1          1          0      )

 cart.    s(19) = (  0.0000000  0.0000000 -1.0000000 )
                  (  0.0000000 -1.0000000  0.0000000 )
                  (  1.0000000  0.0000000  0.0000000 )


      isym = 20     inv.  90 deg rotation - cart. axis [0,-1,0]  

 cryst.   s(20) = (     0         -1          0      )
                  (     0         -1          1      )
                  (     1         -1          0      )

 cart.    s(20) = (  0.0000000  0.0000000  1.0000000 )
                  (  0.0000000 -1.0000000  0.0000000 )
                  ( -1.0000000  0.0000000  0.0000000 )


      isym = 21     inv. 180 deg rotation - cart. axis [0,1,1]   

 cryst.   s(21) = (     1         -1          0      )
                  (     0         -1          0      )
                  (     0         -1          1      )

 cart.    s(21) = (  1.0000000  0.0000000  0.0000000 )
                  (  0.0000000  0.0000000 -1.0000000 )
                  (  0.0000000 -1.0000000  0.0000000 )


      isym = 22     inv. 180 deg rotation - cart. axis [0,1,-1]  

 cryst.   s(22) = (     0          0          1      )
                  (     0          1          0      )
                  (     1          0          0      )

 cart.    s(22) = (  1.0000000  0.0000000  0.0000000 )
                  (  0.0000000  0.0000000  1.0000000 )
                  (  0.0000000  1.0000000  0.0000000 )


      isym = 23     inv.  90 deg rotation - cart. axis [-1,0,0]  

 cryst.   s(23) = (    -1          1          0      )
                  (    -1          0          1      )
                  (    -1          0          0      )

 cart.    s(23) = ( -1.0000000  0.0000000  0.0000000 )
                  (  0.0000000  0.0000000 -1.0000000 )
                  (  0.0000000  1.0000000  0.0000000 )


      isym = 24     inv.  90 deg rotation - cart. axis [1,0,0]   

 cryst.   s(24) = (     0          0         -1      )
                  (     1          0         -1      )
                  (     0          1         -1      )

 cart.    s(24) = ( -1.0000000  0.0000000  0.0000000 )
                  (  0.0000000  0.0000000  1.0000000 )
                  (  0.0000000 -1.0000000  0.0000000 )


   Cartesian axes

     site n.     atom                  positions (alat units)
         1        Ga     tau(   1) = (   0.0000000   0.0000000   0.0000000  )
         2        As     tau(   2) = (   0.3535534   0.3535534   0.3535534  )

   Crystallographic axes

     site n.     atom                  positions (cryst. coord.)
         1        Ga     tau(   1) = (  0.0000000  0.0000000  0.0000000  )
         2        As     tau(   2) = (  0.2500000  0.2500000  0.2500000  )

     number of k points=   120  Gaussian smearing, width (Ry)=  0.0100
                       cart. coord. in units 2pi/alat
        k(    1) = (   0.0000000   0.0000000   0.0000000), wk =   0.0002963
        k(    2) = (   0.0471405  -0.0471405   0.0471405), wk =   0.0023704
        k(    3) = (   0.0942809  -0.0942809   0.0942809), wk =   0.0023704
        k(    4) = (   0.1414214  -0.1414214   0.1414214), wk =   0.0023704
        k(    5) = (   0.1885618  -0.1885618   0.1885618), wk =   0.0023704
        k(    6) = (   0.2357023  -0.2357023   0.2357023), wk =   0.0023704
        k(    7) = (   0.2828427  -0.2828427   0.2828427), wk =   0.0023704
        k(    8) = (   0.3299832  -0.3299832   0.3299832), wk =   0.0023704
        k(    9) = (   0.0000000   0.0000000   0.0942809), wk =   0.0017778
        k(   10) = (   0.0471405  -0.0471405   0.1414214), wk =   0.0071111
        k(   11) = (   0.0942809  -0.0942809   0.1885618), wk =   0.0071111
        k(   12) = (   0.1414214  -0.1414214   0.2357023), wk =   0.0071111
        k(   13) = (   0.1885618  -0.1885618   0.2828427), wk =   0.0071111
        k(   14) = (   0.2357023  -0.2357023   0.3299832), wk =   0.0071111
        k(   15) = (   0.2828427  -0.2828427   0.3771236), wk =   0.0071111
        k(   16) = (  -0.3771236   0.3771236  -0.2828427), wk =   0.0071111
        k(   17) = (  -0.3299832   0.3299832  -0.2357023), wk =   0.0071111
        k(   18) = (  -0.2828427   0.2828427  -0.1885618), wk =   0.0071111
        k(   19) = (  -0.2357023   0.2357023  -0.1414214), wk =   0.0071111
        k(   20) = (  -0.1885618   0.1885618  -0.0942809), wk =   0.0071111
        k(   21) = (  -0.1414214   0.1414214  -0.0471405), wk =   0.0071111
        k(   22) = (  -0.0942809   0.0942809   0.0000000), wk =   0.0035556
        k(   23) = (   0.0000000   0.0000000   0.1885618), wk =   0.0017778
        k(   24) = (   0.0471405  -0.0471405   0.2357023), wk =   0.0071111
        k(   25) = (   0.0942809  -0.0942809   0.2828427), wk =   0.0071111
        k(   26) = (   0.1414214  -0.1414214   0.3299832), wk =   0.0071111
        k(   27) = (   0.1885618  -0.1885618   0.3771236), wk =   0.0071111
        k(   28) = (   0.2357023  -0.2357023   0.4242641), wk =   0.0071111
        k(   29) = (  -0.4242641   0.4242641  -0.2357023), wk =   0.0071111
        k(   30) = (  -0.3771236   0.3771236  -0.1885618), wk =   0.0071111
        k(   31) = (  -0.3299832   0.3299832  -0.1414214), wk =   0.0071111
        k(   32) = (  -0.2828427   0.2828427  -0.0942809), wk =   0.0071111
        k(   33) = (  -0.2357023   0.2357023  -0.0471405), wk =   0.0071111
        k(   34) = (  -0.1885618   0.1885618   0.0000000), wk =   0.0035556
        k(   35) = (   0.0000000   0.0000000   0.2828427), wk =   0.0017778
        k(   36) = (   0.0471405  -0.0471405   0.3299832), wk =   0.0071111
        k(   37) = (   0.0942809  -0.0942809   0.3771236), wk =   0.0071111
        k(   38) = (   0.1414214  -0.1414214   0.4242641), wk =   0.0071111
        k(   39) = (   0.1885618  -0.1885618   0.4714045), wk =   0.0071111
        k(   40) = (  -0.4714045   0.4714045  -0.1885618), wk =   0.0071111
        k(   41) = (  -0.4242641   0.4242641  -0.1414214), wk =   0.0071111
        k(   42) = (  -0.3771236   0.3771236  -0.0942809), wk =   0.0071111
        k(   43) = (  -0.3299832   0.3299832  -0.0471405), wk =   0.0071111
        k(   44) = (  -0.2828427   0.2828427   0.0000000), wk =   0.0035556
        k(   45) = (   0.0000000   0.0000000   0.3771236), wk =   0.0017778
        k(   46) = (   0.0471405  -0.0471405   0.4242641), wk =   0.0071111
        k(   47) = (   0.0942809  -0.0942809   0.4714045), wk =   0.0071111
        k(   48) = (   0.1414214  -0.1414214   0.5185450), wk =   0.0071111
        k(   49) = (  -0.5185450   0.5185450  -0.1414214), wk =   0.0071111
        k(   50) = (  -0.4714045   0.4714045  -0.0942809), wk =   0.0071111
        k(   51) = (  -0.4242641   0.4242641  -0.0471405), wk =   0.0071111
        k(   52) = (  -0.3771236   0.3771236  -0.0000000), wk =   0.0035556
        k(   53) = (   0.0000000   0.0000000   0.4714045), wk =   0.0017778
        k(   54) = (   0.0471405  -0.0471405   0.5185450), wk =   0.0071111
        k(   55) = (   0.0942809  -0.0942809   0.5656854), wk =   0.0071111
        k(   56) = (  -0.5656854   0.5656854  -0.0942809), wk =   0.0071111
        k(   57) = (  -0.5185450   0.5185450  -0.0471405), wk =   0.0071111
        k(   58) = (  -0.4714045   0.4714045  -0.0000000), wk =   0.0035556
        k(   59) = (   0.0000000   0.0000000   0.5656854), wk =   0.0017778
        k(   60) = (   0.0471405  -0.0471405   0.6128259), wk =   0.0071111
        k(   61) = (  -0.6128259   0.6128259  -0.0471405), wk =   0.0071111
        k(   62) = (  -0.5656854   0.5656854   0.0000000), wk =   0.0035556
        k(   63) = (   0.0000000   0.0000000   0.6599663), wk =   0.0017778
        k(   64) = (  -0.6599663   0.6599663   0.0000000), wk =   0.0035556
        k(   65) = (   0.0942809  -0.0000000   0.1885618), wk =   0.0071111
        k(   66) = (   0.1414214  -0.0471405   0.2357023), wk =   0.0142222
        k(   67) = (   0.1885618  -0.0942809   0.2828427), wk =   0.0142222
        k(   68) = (   0.2357023  -0.1414214   0.3299832), wk =   0.0142222
        k(   69) = (   0.2828427  -0.1885618   0.3771236), wk =   0.0142222
        k(   70) = (  -0.3771236   0.4714045  -0.2828427), wk =   0.0142222
        k(   71) = (   0.0942809   0.0000000   0.2828427), wk =   0.0071111
        k(   72) = (   0.1414214  -0.0471405   0.3299832), wk =   0.0142222
        k(   73) = (   0.1885618  -0.0942809   0.3771236), wk =   0.0142222
        k(   74) = (   0.2357023  -0.1414214   0.4242641), wk =   0.0142222
        k(   75) = (  -0.4242641   0.5185450  -0.2357023), wk =   0.0142222
        k(   76) = (  -0.3771236   0.4714045  -0.1885618), wk =   0.0142222
        k(   77) = (  -0.3299832   0.4242641  -0.1414214), wk =   0.0142222
        k(   78) = (  -0.2828427   0.3771236  -0.0942809), wk =   0.0142222
        k(   79) = (  -0.2357023   0.3299832  -0.0471405), wk =   0.0142222
        k(   80) = (  -0.1885618   0.2828427   0.0000000), wk =   0.0071111
        k(   81) = (   0.0942809   0.0000000   0.3771236), wk =   0.0071111
        k(   82) = (   0.1414214  -0.0471405   0.4242641), wk =   0.0142222
        k(   83) = (   0.1885618  -0.0942809   0.4714045), wk =   0.0142222
        k(   84) = (  -0.4714045   0.5656854  -0.1885618), wk =   0.0142222
        k(   85) = (  -0.4242641   0.5185450  -0.1414214), wk =   0.0142222
        k(   86) = (  -0.3771236   0.4714045  -0.0942809), wk =   0.0142222
        k(   87) = (  -0.3299832   0.4242641  -0.0471405), wk =   0.0142222
        k(   88) = (  -0.2828427   0.3771236   0.0000000), wk =   0.0071111
        k(   89) = (   0.0942809  -0.0000000   0.4714045), wk =   0.0071111
        k(   90) = (   0.1414214  -0.0471405   0.5185450), wk =   0.0142222
        k(   91) = (  -0.5185450   0.6128259  -0.1414214), wk =   0.0142222
        k(   92) = (  -0.4714045   0.5656854  -0.0942809), wk =   0.0142222
        k(   93) = (  -0.4242641   0.5185450  -0.0471405), wk =   0.0142222
        k(   94) = (  -0.3771236   0.4714045  -0.0000000), wk =   0.0071111
        k(   95) = (   0.0942809   0.0000000   0.5656854), wk =   0.0071111
        k(   96) = (  -0.5656854   0.6599663  -0.0942809), wk =   0.0142222
        k(   97) = (  -0.5185450   0.6128259  -0.0471405), wk =   0.0142222
        k(   98) = (  -0.4714045   0.5656854   0.0000000), wk =   0.0071111
        k(   99) = (  -0.6128259   0.7071068  -0.0471405), wk =   0.0071111
        k(  100) = (  -0.5656854   0.6599663   0.0000000), wk =   0.0071111
        k(  101) = (   0.1885618  -0.0000000   0.3771236), wk =   0.0071111
        k(  102) = (   0.2357023  -0.0471405   0.4242641), wk =   0.0142222
        k(  103) = (  -0.4242641   0.6128259  -0.2357023), wk =   0.0142222
        k(  104) = (  -0.3771236   0.5656854  -0.1885618), wk =   0.0142222
        k(  105) = (   0.1885618  -0.0000000   0.4714045), wk =   0.0071111
        k(  106) = (  -0.4714045   0.6599663  -0.1885618), wk =   0.0142222
        k(  107) = (  -0.4242641   0.6128259  -0.1414214), wk =   0.0142222
        k(  108) = (  -0.3771236   0.5656854  -0.0942809), wk =   0.0142222
        k(  109) = (  -0.3299832   0.5185450  -0.0471405), wk =   0.0142222
        k(  110) = (  -0.2828427   0.4714045   0.0000000), wk =   0.0071111
        k(  111) = (  -0.5185450   0.7071068  -0.1414214), wk =   0.0071111
        k(  112) = (  -0.4714045   0.6599663  -0.0942809), wk =   0.0142222
        k(  113) = (  -0.4242641   0.6128259  -0.0471405), wk =   0.0142222
        k(  114) = (  -0.3771236   0.5656854   0.0000000), wk =   0.0071111
        k(  115) = (  -0.5185450   0.7071068  -0.0471405), wk =   0.0071111
        k(  116) = (  -0.4714045   0.6599663   0.0000000), wk =   0.0071111
        k(  117) = (  -0.4242641   0.7071068  -0.1414214), wk =   0.0071111
        k(  118) = (  -0.3771236   0.6599663  -0.0942809), wk =   0.0142222
        k(  119) = (  -0.4242641   0.7071068  -0.0471405), wk =   0.0071111
        k(  120) = (  -0.3771236   0.6599663  -0.0000000), wk =   0.0071111

                       cryst. coord.
        k(    1) = (   0.0000000   0.0000000   0.0000000), wk =   0.0002963
        k(    2) = (   0.0000000   0.0000000   0.0666667), wk =   0.0023704
        k(    3) = (   0.0000000   0.0000000   0.1333333), wk =   0.0023704
        k(    4) = (   0.0000000   0.0000000   0.2000000), wk =   0.0023704
        k(    5) = (   0.0000000   0.0000000   0.2666667), wk =   0.0023704
        k(    6) = (   0.0000000   0.0000000   0.3333333), wk =   0.0023704
        k(    7) = (   0.0000000   0.0000000   0.4000000), wk =   0.0023704
        k(    8) = (   0.0000000   0.0000000   0.4666667), wk =   0.0023704
        k(    9) = (   0.0000000   0.0666667   0.0666667), wk =   0.0017778
        k(   10) = (   0.0000000   0.0666667   0.1333333), wk =   0.0071111
        k(   11) = (   0.0000000   0.0666667   0.2000000), wk =   0.0071111
        k(   12) = (   0.0000000   0.0666667   0.2666667), wk =   0.0071111
        k(   13) = (   0.0000000   0.0666667   0.3333333), wk =   0.0071111
        k(   14) = (   0.0000000   0.0666667   0.4000000), wk =   0.0071111
        k(   15) = (   0.0000000   0.0666667   0.4666667), wk =   0.0071111
        k(   16) = (   0.0000000   0.0666667  -0.4666667), wk =   0.0071111
        k(   17) = (   0.0000000   0.0666667  -0.4000000), wk =   0.0071111
        k(   18) = (   0.0000000   0.0666667  -0.3333333), wk =   0.0071111
        k(   19) = (   0.0000000   0.0666667  -0.2666667), wk =   0.0071111
        k(   20) = (   0.0000000   0.0666667  -0.2000000), wk =   0.0071111
        k(   21) = (   0.0000000   0.0666667  -0.1333333), wk =   0.0071111
        k(   22) = (   0.0000000   0.0666667  -0.0666667), wk =   0.0035556
        k(   23) = (   0.0000000   0.1333333   0.1333333), wk =   0.0017778
        k(   24) = (   0.0000000   0.1333333   0.2000000), wk =   0.0071111
        k(   25) = (   0.0000000   0.1333333   0.2666667), wk =   0.0071111
        k(   26) = (   0.0000000   0.1333333   0.3333333), wk =   0.0071111
        k(   27) = (   0.0000000   0.1333333   0.4000000), wk =   0.0071111
        k(   28) = (   0.0000000   0.1333333   0.4666667), wk =   0.0071111
        k(   29) = (   0.0000000   0.1333333  -0.4666667), wk =   0.0071111
        k(   30) = (   0.0000000   0.1333333  -0.4000000), wk =   0.0071111
        k(   31) = (   0.0000000   0.1333333  -0.3333333), wk =   0.0071111
        k(   32) = (   0.0000000   0.1333333  -0.2666667), wk =   0.0071111
        k(   33) = (   0.0000000   0.1333333  -0.2000000), wk =   0.0071111
        k(   34) = (   0.0000000   0.1333333  -0.1333333), wk =   0.0035556
        k(   35) = (   0.0000000   0.2000000   0.2000000), wk =   0.0017778
        k(   36) = (   0.0000000   0.2000000   0.2666667), wk =   0.0071111
        k(   37) = (   0.0000000   0.2000000   0.3333333), wk =   0.0071111
        k(   38) = (   0.0000000   0.2000000   0.4000000), wk =   0.0071111
        k(   39) = (   0.0000000   0.2000000   0.4666667), wk =   0.0071111
        k(   40) = (   0.0000000   0.2000000  -0.4666667), wk =   0.0071111
        k(   41) = (   0.0000000   0.2000000  -0.4000000), wk =   0.0071111
        k(   42) = (   0.0000000   0.2000000  -0.3333333), wk =   0.0071111
        k(   43) = (   0.0000000   0.2000000  -0.2666667), wk =   0.0071111
        k(   44) = (   0.0000000   0.2000000  -0.2000000), wk =   0.0035556
        k(   45) = (   0.0000000   0.2666667   0.2666667), wk =   0.0017778
        k(   46) = (   0.0000000   0.2666667   0.3333333), wk =   0.0071111
        k(   47) = (   0.0000000   0.2666667   0.4000000), wk =   0.0071111
        k(   48) = (   0.0000000   0.2666667   0.4666667), wk =   0.0071111
        k(   49) = (   0.0000000   0.2666667  -0.4666667), wk =   0.0071111
        k(   50) = (   0.0000000   0.2666667  -0.4000000), wk =   0.0071111
        k(   51) = (   0.0000000   0.2666667  -0.3333333), wk =   0.0071111
        k(   52) = (   0.0000000   0.2666667  -0.2666667), wk =   0.0035556
        k(   53) = (   0.0000000   0.3333333   0.3333333), wk =   0.0017778
        k(   54) = (   0.0000000   0.3333333   0.4000000), wk =   0.0071111
        k(   55) = (   0.0000000   0.3333333   0.4666667), wk =   0.0071111
        k(   56) = (   0.0000000   0.3333333  -0.4666667), wk =   0.0071111
        k(   57) = (   0.0000000   0.3333333  -0.4000000), wk =   0.0071111
        k(   58) = (   0.0000000   0.3333333  -0.3333333), wk =   0.0035556
        k(   59) = (   0.0000000   0.4000000   0.4000000), wk =   0.0017778
        k(   60) = (   0.0000000   0.4000000   0.4666667), wk =   0.0071111
        k(   61) = (   0.0000000   0.4000000  -0.4666667), wk =   0.0071111
        k(   62) = (   0.0000000   0.4000000  -0.4000000), wk =   0.0035556
        k(   63) = (   0.0000000   0.4666667   0.4666667), wk =   0.0017778
        k(   64) = (   0.0000000   0.4666667  -0.4666667), wk =   0.0035556
        k(   65) = (   0.0666667   0.1333333   0.2000000), wk =   0.0071111
        k(   66) = (   0.0666667   0.1333333   0.2666667), wk =   0.0142222
        k(   67) = (   0.0666667   0.1333333   0.3333333), wk =   0.0142222
        k(   68) = (   0.0666667   0.1333333   0.4000000), wk =   0.0142222
        k(   69) = (   0.0666667   0.1333333   0.4666667), wk =   0.0142222
        k(   70) = (   0.0666667   0.1333333  -0.4666667), wk =   0.0142222
        k(   71) = (   0.0666667   0.2000000   0.2666667), wk =   0.0071111
        k(   72) = (   0.0666667   0.2000000   0.3333333), wk =   0.0142222
        k(   73) = (   0.0666667   0.2000000   0.4000000), wk =   0.0142222
        k(   74) = (   0.0666667   0.2000000   0.4666667), wk =   0.0142222
        k(   75) = (   0.0666667   0.2000000  -0.4666667), wk =   0.0142222
        k(   76) = (   0.0666667   0.2000000  -0.4000000), wk =   0.0142222
        k(   77) = (   0.0666667   0.2000000  -0.3333333), wk =   0.0142222
        k(   78) = (   0.0666667   0.2000000  -0.2666667), wk =   0.0142222
        k(   79) = (   0.0666667   0.2000000  -0.2000000), wk =   0.0142222
        k(   80) = (   0.0666667   0.2000000  -0.1333333), wk =   0.0071111
        k(   81) = (   0.0666667   0.2666667   0.3333333), wk =   0.0071111
        k(   82) = (   0.0666667   0.2666667   0.4000000), wk =   0.0142222
        k(   83) = (   0.0666667   0.2666667   0.4666667), wk =   0.0142222
        k(   84) = (   0.0666667   0.2666667  -0.4666667), wk =   0.0142222
        k(   85) = (   0.0666667   0.2666667  -0.4000000), wk =   0.0142222
        k(   86) = (   0.0666667   0.2666667  -0.3333333), wk =   0.0142222
        k(   87) = (   0.0666667   0.2666667  -0.2666667), wk =   0.0142222
        k(   88) = (   0.0666667   0.2666667  -0.2000000), wk =   0.0071111
        k(   89) = (   0.0666667   0.3333333   0.4000000), wk =   0.0071111
        k(   90) = (   0.0666667   0.3333333   0.4666667), wk =   0.0142222
        k(   91) = (   0.0666667   0.3333333  -0.4666667), wk =   0.0142222
        k(   92) = (   0.0666667   0.3333333  -0.4000000), wk =   0.0142222
        k(   93) = (   0.0666667   0.3333333  -0.3333333), wk =   0.0142222
        k(   94) = (   0.0666667   0.3333333  -0.2666667), wk =   0.0071111
        k(   95) = (   0.0666667   0.4000000   0.4666667), wk =   0.0071111
        k(   96) = (   0.0666667   0.4000000  -0.4666667), wk =   0.0142222
        k(   97) = (   0.0666667   0.4000000  -0.4000000), wk =   0.0142222
        k(   98) = (   0.0666667   0.4000000  -0.3333333), wk =   0.0071111
        k(   99) = (   0.0666667   0.4666667  -0.4666667), wk =   0.0071111
        k(  100) = (   0.0666667   0.4666667  -0.4000000), wk =   0.0071111
        k(  101) = (   0.1333333   0.2666667   0.4000000), wk =   0.0071111
        k(  102) = (   0.1333333   0.2666667   0.4666667), wk =   0.0142222
        k(  103) = (   0.1333333   0.2666667  -0.4666667), wk =   0.0142222
        k(  104) = (   0.1333333   0.2666667  -0.4000000), wk =   0.0142222
        k(  105) = (   0.1333333   0.3333333   0.4666667), wk =   0.0071111
        k(  106) = (   0.1333333   0.3333333  -0.4666667), wk =   0.0142222
        k(  107) = (   0.1333333   0.3333333  -0.4000000), wk =   0.0142222
        k(  108) = (   0.1333333   0.3333333  -0.3333333), wk =   0.0142222
        k(  109) = (   0.1333333   0.3333333  -0.2666667), wk =   0.0142222
        k(  110) = (   0.1333333   0.3333333  -0.2000000), wk =   0.0071111
        k(  111) = (   0.1333333   0.4000000  -0.4666667), wk =   0.0071111
        k(  112) = (   0.1333333   0.4000000  -0.4000000), wk =   0.0142222
        k(  113) = (   0.1333333   0.4000000  -0.3333333), wk =   0.0142222
        k(  114) = (   0.1333333   0.4000000  -0.2666667), wk =   0.0071111
        k(  115) = (   0.1333333   0.4666667  -0.4000000), wk =   0.0071111
        k(  116) = (   0.1333333   0.4666667  -0.3333333), wk =   0.0071111
        k(  117) = (   0.2000000   0.4000000  -0.4000000), wk =   0.0071111
        k(  118) = (   0.2000000   0.4000000  -0.3333333), wk =   0.0142222
        k(  119) = (   0.2000000   0.4666667  -0.3333333), wk =   0.0071111
        k(  120) = (   0.2000000   0.4666667  -0.2666667), wk =   0.0071111

     Dense  grid:    40821 G-vectors     FFT dimensions: (  48,  48,  48)

     Dynamical RAM for                 wfc:       0.23 MB

     Dynamical RAM for     wfc (w. buffer):       3.73 MB

     Dynamical RAM for             V proj.:       0.08 MB

     Dynamical RAM for  V proj. (w. buff.):       1.24 MB

     Dynamical RAM for           str. fact:       0.16 MB

     Dynamical RAM for           local pot:       0.00 MB

     Dynamical RAM for          nlocal pot:       0.35 MB

     Dynamical RAM for                qrad:       6.42 MB

     Dynamical RAM for          rho,v,vnew:       1.10 MB

     Dynamical RAM for               rhoin:       0.37 MB

     Dynamical RAM for            rho*nmix:       2.49 MB

     Dynamical RAM for           G-vectors:       0.33 MB

     Dynamical RAM for          h,s,v(r/c):       0.11 MB

     Dynamical RAM for          <psi|beta>:       0.01 MB

     Dynamical RAM for                 psi:       0.47 MB

     Dynamical RAM for                hpsi:       0.47 MB

     Dynamical RAM for      wfcinit/wfcrot:       0.48 MB

     Estimated static dynamical RAM per process >      14.56 MB

     Estimated max dynamical RAM per process >      18.10 MB

     Estimated total dynamical RAM >       1.97 GB
     Generating pointlists ...
     new r_m :   0.2526 (alat units)  1.9012 (a.u.) for type    1
     new r_m :   0.2526 (alat units)  1.9012 (a.u.) for type    2

     Initial potential from superposition of free atoms

     starting charge      27.9971, renormalised to      28.0000
 
     =========================
     E(+U+V) =  0.000000000 Ry
     =========================

     Atomic wfcs used for DFT+U+V projectors are orthogonalized

     Starting wfcs are random

     total cpu time spent up to now is        3.0 secs

     Self-consistent Calculation

     iteration #  1     ecut=   100.00 Ry     beta= 0.70
     Davidson diagonalization with overlap

---- Real-time Memory Report at c_bands before calling an iterative solver
           801 MiB given to the printing process from OS
             0 MiB allocation reported by mallinfo(arena+hblkhd)
        440615 MiB available memory on the node where the printing process lives
------------------
     ethr =  1.00E-02,  avg # of iterations = 10.7
                                        
     -----------------------------------
     V[atom i, atom j, #orb(i), #orb(j)]
     -----------------------------------
     [  1,  1,  4,  4  ]
     [  0     0     0  ]
       0.0000   0.0000   0.0000   0.0000
       0.0000   0.2354   0.2354   0.2354
       0.0000   0.2354   0.2354   0.2354
       0.0000   0.2354   0.2354   0.2354
 
     [  1,  2,  4,  4  ]
     [  0     0     0  ]
       0.6192   1.1277   1.1277   1.1277
       0.5952   1.3210   1.3210   1.3210
       0.5952   1.3210   1.3210   1.3210
       0.5952   1.3210   1.3210   1.3210
 
     [  2,  1,  4,  4  ]
     [  0     0     0  ]
       0.6192   0.5952   0.5952   0.5952
       1.1277   1.3210   1.3210   1.3210
       1.1277   1.3210   1.3210   1.3210
       1.1277   1.3210   1.3210   1.3210
 
     [  2,  2,  4,  4  ]
     [  0     0     0  ]
       0.0000   0.0000   0.0000   0.0000
       0.0000   1.7300   1.7300   1.7300
       0.0000   1.7300   1.7300   1.7300
       0.0000   1.7300   1.7300   1.7300
 
     [  1,  2,  4,  4  ]
     [ -1     0     0  ]
       0.6192   1.1277   1.1277   1.1277
       0.5952   1.3210   1.3210   1.3210
       0.5952   1.3210   1.3210   1.3210
       0.5952   1.3210   1.3210   1.3210
 
     [  1,  2,  4,  4  ]
     [  0    -1     0  ]
       0.6192   1.1277   1.1277   1.1277
       0.5952   1.3210   1.3210   1.3210
       0.5952   1.3210   1.3210   1.3210
       0.5952   1.3210   1.3210   1.3210
 
     [  1,  2,  4,  4  ]
     [  0     0    -1  ]
       0.6192   1.1277   1.1277   1.1277
       0.5952   1.3210   1.3210   1.3210
       0.5952   1.3210   1.3210   1.3210
       0.5952   1.3210   1.3210   1.3210
 
     [  2,  1,  4,  4  ]
     [  0     0     1  ]
       0.6192   0.5952   0.5952   0.5952
       1.1277   1.3210   1.3210   1.3210
       1.1277   1.3210   1.3210   1.3210
       1.1277   1.3210   1.3210   1.3210
 
     [  2,  1,  4,  4  ]
     [  0     1     0  ]
       0.6192   0.5952   0.5952   0.5952
       1.1277   1.3210   1.3210   1.3210
       1.1277   1.3210   1.3210   1.3210
       1.1277   1.3210   1.3210   1.3210
 
     [  2,  1,  4,  4  ]
     [  1     0     0  ]
       0.6192   0.5952   0.5952   0.5952
       1.1277   1.3210   1.3210   1.3210
       1.1277   1.3210   1.3210   1.3210
       1.1277   1.3210   1.3210   1.3210
 

     Threshold (ethr) on eigenvalues was too large:
     Diagonalizing with lowered threshold

     Davidson diagonalization with overlap

---- Real-time Memory Report at c_bands before calling an iterative solver
           814 MiB given to the printing process from OS
             0 MiB allocation reported by mallinfo(arena+hblkhd)
        440502 MiB available memory on the node where the printing process lives
------------------
     ethr =  8.24E-04,  avg # of iterations =  4.6
                                        
     -----------------------------------
     V[atom i, atom j, #orb(i), #orb(j)]
     -----------------------------------
     [  1,  1,  4,  4  ]
     [  0     0     0  ]
       0.0000   0.0000   0.0000   0.0000
       0.0000   0.2826   0.2826   0.2826
       0.0000   0.2826   0.2826   0.2826
       0.0000   0.2826   0.2826   0.2826
 
     [  1,  2,  4,  4  ]
     [  0     0     0  ]
       0.7447   1.3532   1.3532   1.3532
       0.7163   1.5851   1.5851   1.5851
       0.7163   1.5851   1.5851   1.5851
       0.7163   1.5851   1.5851   1.5851
 
     [  2,  1,  4,  4  ]
     [  0     0     0  ]
       0.7447   0.7163   0.7163   0.7163
       1.3532   1.5851   1.5851   1.5851
       1.3532   1.5851   1.5851   1.5851
       1.3532   1.5851   1.5851   1.5851
 
     [  2,  2,  4,  4  ]
     [  0     0     0  ]
       0.0000   0.0000   0.0000   0.0000
       0.0000   2.0758   2.0758   2.0758
       0.0000   2.0758   2.0758   2.0758
       0.0000   2.0758   2.0758   2.0758
 
     [  1,  2,  4,  4  ]
     [ -1     0     0  ]
       0.7447   1.3532   1.3532   1.3532
       0.7163   1.5851   1.5851   1.5851
       0.7163   1.5851   1.5851   1.5851
       0.7163   1.5851   1.5851   1.5851
 
     [  1,  2,  4,  4  ]
     [  0    -1     0  ]
       0.7447   1.3532   1.3532   1.3532
       0.7163   1.5851   1.5851   1.5851
       0.7163   1.5851   1.5851   1.5851
       0.7163   1.5851   1.5851   1.5851
 
     [  1,  2,  4,  4  ]
     [  0     0    -1  ]
       0.7447   1.3532   1.3532   1.3532
       0.7163   1.5851   1.5851   1.5851
       0.7163   1.5851   1.5851   1.5851
       0.7163   1.5851   1.5851   1.5851
 
     [  2,  1,  4,  4  ]
     [  0     0     1  ]
       0.7447   0.7163   0.7163   0.7163
       1.3532   1.5851   1.5851   1.5851
       1.3532   1.5851   1.5851   1.5851
       1.3532   1.5851   1.5851   1.5851
 
     [  2,  1,  4,  4  ]
     [  0     1     0  ]
       0.7447   0.7163   0.7163   0.7163
       1.3532   1.5851   1.5851   1.5851
       1.3532   1.5851   1.5851   1.5851
       1.3532   1.5851   1.5851   1.5851
 
     [  2,  1,  4,  4  ]
     [  1     0     0  ]
       0.7447   0.7163   0.7163   0.7163
       1.3532   1.5851   1.5851   1.5851
       1.3532   1.5851   1.5851   1.5851
       1.3532   1.5851   1.5851   1.5851
 
 
     =========================
     E(+U+V) = -0.005675778 Ry
     =========================

     total cpu time spent up to now is        5.4 secs

     total energy              =    -365.14556020 Ry
     estimated scf accuracy    <       0.02297812 Ry
     Hubbard accuracy          <       0.00567578 Ry

     total magnetization       =     0.00 Bohr mag/cell
     absolute magnetization    =     0.00 Bohr mag/cell

     iteration #  2     ecut=   100.00 Ry     beta= 0.70
     Davidson diagonalization with overlap

---- Real-time Memory Report at c_bands before calling an iterative solver
           820 MiB given to the printing process from OS
             0 MiB allocation reported by mallinfo(arena+hblkhd)
        440483 MiB available memory on the node where the printing process lives
------------------
     ethr =  8.21E-05,  avg # of iterations =  4.7
                                        
     -----------------------------------
     V[atom i, atom j, #orb(i), #orb(j)]
     -----------------------------------
     [  1,  1,  4,  4  ]
     [  0     0     0  ]
       0.0000   0.0000   0.0000   0.0000
       0.0000   0.3631   0.3631   0.3631
       0.0000   0.3631   0.3631   0.3631
       0.0000   0.3631   0.3631   0.3631
 
     [  1,  2,  4,  4  ]
     [  0     0     0  ]
       0.8670   1.2468   1.2468   1.2468
       0.8065   1.6676   1.6676   1.6676
       0.8065   1.6676   1.6676   1.6676
       0.8065   1.6676   1.6676   1.6676
 
     [  2,  1,  4,  4  ]
     [  0     0     0  ]
       0.8670   0.8065   0.8065   0.8065
       1.2468   1.6676   1.6676   1.6676
       1.2468   1.6676   1.6676   1.6676
       1.2468   1.6676   1.6676   1.6676
 
     [  2,  2,  4,  4  ]
     [  0     0     0  ]
       0.0000   0.0000   0.0000   0.0000
       0.0000   1.8939   1.8939   1.8939
       0.0000   1.8939   1.8939   1.8939
       0.0000   1.8939   1.8939   1.8939
 
     [  1,  2,  4,  4  ]
     [ -1     0     0  ]
       0.8670   1.2468   1.2468   1.2468
       0.8065   1.6676   1.6676   1.6676
       0.8065   1.6676   1.6676   1.6676
       0.8065   1.6676   1.6676   1.6676
 
     [  1,  2,  4,  4  ]
     [  0    -1     0  ]
       0.8670   1.2468   1.2468   1.2468
       0.8065   1.6676   1.6676   1.6676
       0.8065   1.6676   1.6676   1.6676
       0.8065   1.6676   1.6676   1.6676
 
     [  1,  2,  4,  4  ]
     [  0     0    -1  ]
       0.8670   1.2468   1.2468   1.2468
       0.8065   1.6676   1.6676   1.6676
       0.8065   1.6676   1.6676   1.6676
       0.8065   1.6676   1.6676   1.6676
 
     [  2,  1,  4,  4  ]
     [  0     0     1  ]
       0.8670   0.8065   0.8065   0.8065
       1.2468   1.6676   1.6676   1.6676
       1.2468   1.6676   1.6676   1.6676
       1.2468   1.6676   1.6676   1.6676
 
     [  2,  1,  4,  4  ]
     [  0     1     0  ]
       0.8670   0.8065   0.8065   0.8065
       1.2468   1.6676   1.6676   1.6676
       1.2468   1.6676   1.6676   1.6676
       1.2468   1.6676   1.6676   1.6676
 
     [  2,  1,  4,  4  ]
     [  1     0     0  ]
       0.8670   0.8065   0.8065   0.8065
       1.2468   1.6676   1.6676   1.6676
       1.2468   1.6676   1.6676   1.6676
       1.2468   1.6676   1.6676   1.6676
 
 
     =========================
     E(+U+V) = -0.024114149 Ry
     =========================

     total cpu time spent up to now is        6.1 secs

     total energy              =    -365.17259100 Ry
     estimated scf accuracy    <       0.03014151 Ry
     Hubbard accuracy          <       0.01843837 Ry

     total magnetization       =     0.00 Bohr mag/cell
     absolute magnetization    =     0.00 Bohr mag/cell

     iteration #  3     ecut=   100.00 Ry     beta= 0.70
     Davidson diagonalization with overlap

---- Real-time Memory Report at c_bands before calling an iterative solver
           822 MiB given to the printing process from OS
             0 MiB allocation reported by mallinfo(arena+hblkhd)
        440471 MiB available memory on the node where the printing process lives
------------------
     ethr =  8.21E-05,  avg # of iterations =  1.8
                                        
     -----------------------------------
     V[atom i, atom j, #orb(i), #orb(j)]
     -----------------------------------
     [  1,  1,  4,  4  ]
     [  0     0     0  ]
       0.0000   0.0000   0.0000   0.0000
       0.0000   0.3609   0.3609   0.3609
       0.0000   0.3609   0.3609   0.3609
       0.0000   0.3609   0.3609   0.3609
 
     [  1,  2,  4,  4  ]
     [  0     0     0  ]
       0.8581   1.2701   1.2701   1.2701
       0.8213   1.6780   1.6780   1.6780
       0.8213   1.6780   1.6780   1.6780
       0.8213   1.6780   1.6780   1.6780
 
     [  2,  1,  4,  4  ]
     [  0     0     0  ]
       0.8581   0.8213   0.8213   0.8213
       1.2701   1.6780   1.6780   1.6780
       1.2701   1.6780   1.6780   1.6780
       1.2701   1.6780   1.6780   1.6780
 
     [  2,  2,  4,  4  ]
     [  0     0     0  ]
       0.0000   0.0000   0.0000   0.0000
       0.0000   1.9257   1.9257   1.9257
       0.0000   1.9257   1.9257   1.9257
       0.0000   1.9257   1.9257   1.9257
 
     [  1,  2,  4,  4  ]
     [ -1     0     0  ]
       0.8581   1.2701   1.2701   1.2701
       0.8213   1.6780   1.6780   1.6780
       0.8213   1.6780   1.6780   1.6780
       0.8213   1.6780   1.6780   1.6780
 
     [  1,  2,  4,  4  ]
     [  0    -1     0  ]
       0.8581   1.2701   1.2701   1.2701
       0.8213   1.6780   1.6780   1.6780
       0.8213   1.6780   1.6780   1.6780
       0.8213   1.6780   1.6780   1.6780
 
     [  1,  2,  4,  4  ]
     [  0     0    -1  ]
       0.8581   1.2701   1.2701   1.2701
       0.8213   1.6780   1.6780   1.6780
       0.8213   1.6780   1.6780   1.6780
       0.8213   1.6780   1.6780   1.6780
 
     [  2,  1,  4,  4  ]
     [  0     0     1  ]
       0.8581   0.8213   0.8213   0.8213
       1.2701   1.6780   1.6780   1.6780
       1.2701   1.6780   1.6780   1.6780
       1.2701   1.6780   1.6780   1.6780
 
     [  2,  1,  4,  4  ]
     [  0     1     0  ]
       0.8581   0.8213   0.8213   0.8213
       1.2701   1.6780   1.6780   1.6780
       1.2701   1.6780   1.6780   1.6780
       1.2701   1.6780   1.6780   1.6780
 
     [  2,  1,  4,  4  ]
     [  1     0     0  ]
       0.8581   0.8213   0.8213   0.8213
       1.2701   1.6780   1.6780   1.6780
       1.2701   1.6780   1.6780   1.6780
       1.2701   1.6780   1.6780   1.6780
 
 
     =========================
     E(+U+V) = -0.047963192 Ry
     =========================

     total cpu time spent up to now is        6.6 secs

     total energy              =    -365.17251890 Ry
     estimated scf accuracy    <       0.00594858 Ry
     Hubbard accuracy          <       0.02384904 Ry

     total magnetization       =     0.00 Bohr mag/cell
     absolute magnetization    =     0.00 Bohr mag/cell

     iteration #  4     ecut=   100.00 Ry     beta= 0.70
     Davidson diagonalization with overlap

---- Real-time Memory Report at c_bands before calling an iterative solver
           824 MiB given to the printing process from OS
             0 MiB allocation reported by mallinfo(arena+hblkhd)
        440476 MiB available memory on the node where the printing process lives
------------------
     ethr =  2.12E-05,  avg # of iterations =  3.3
                                        
     -----------------------------------
     V[atom i, atom j, #orb(i), #orb(j)]
     -----------------------------------
     [  1,  1,  4,  4  ]
     [  0     0     0  ]
       0.0000   0.0000   0.0000   0.0000
       0.0000   0.3433   0.3433   0.3433
       0.0000   0.3433   0.3433   0.3433
       0.0000   0.3433   0.3433   0.3433
 
     [  1,  2,  4,  4  ]
     [  0     0     0  ]
       0.8123   1.3005   1.3005   1.3005
       0.7953   1.6737   1.6737   1.6737
       0.7953   1.6737   1.6737   1.6737
       0.7953   1.6737   1.6737   1.6737
 
     [  2,  1,  4,  4  ]
     [  0     0     0  ]
       0.8123   0.7953   0.7953   0.7953
       1.3005   1.6737   1.6737   1.6737
       1.3005   1.6737   1.6737   1.6737
       1.3005   1.6737   1.6737   1.6737
 
     [  2,  2,  4,  4  ]
     [  0     0     0  ]
       0.0000   0.0000   0.0000   0.0000
       0.0000   1.9845   1.9845   1.9845
       0.0000   1.9845   1.9845   1.9845
       0.0000   1.9845   1.9845   1.9845
 
     [  1,  2,  4,  4  ]
     [ -1     0     0  ]
       0.8123   1.3005   1.3005   1.3005
       0.7953   1.6737   1.6737   1.6737
       0.7953   1.6737   1.6737   1.6737
       0.7953   1.6737   1.6737   1.6737
 
     [  1,  2,  4,  4  ]
     [  0    -1     0  ]
       0.8123   1.3005   1.3005   1.3005
       0.7953   1.6737   1.6737   1.6737
       0.7953   1.6737   1.6737   1.6737
       0.7953   1.6737   1.6737   1.6737
 
     [  1,  2,  4,  4  ]
     [  0     0    -1  ]
       0.8123   1.3005   1.3005   1.3005
       0.7953   1.6737   1.6737   1.6737
       0.7953   1.6737   1.6737   1.6737
       0.7953   1.6737   1.6737   1.6737
 
     [  2,  1,  4,  4  ]
     [  0     0     1  ]
       0.8123   0.7953   0.7953   0.7953
       1.3005   1.6737   1.6737   1.6737
       1.3005   1.6737   1.6737   1.6737
       1.3005   1.6737   1.6737   1.6737
 
     [  2,  1,  4,  4  ]
     [  0     1     0  ]
       0.8123   0.7953   0.7953   0.7953
       1.3005   1.6737   1.6737   1.6737
       1.3005   1.6737   1.6737   1.6737
       1.3005   1.6737   1.6737   1.6737
 
     [  2,  1,  4,  4  ]
     [  1     0     0  ]
       0.8123   0.7953   0.7953   0.7953
       1.3005   1.6737   1.6737   1.6737
       1.3005   1.6737   1.6737   1.6737
       1.3005   1.6737   1.6737   1.6737
 
 
     =========================
     E(+U+V) = -0.045355068 Ry
     =========================

     total cpu time spent up to now is        7.3 secs

     total energy              =    -365.17170472 Ry
     estimated scf accuracy    <       0.00098469 Ry
     Hubbard accuracy          <       0.00260812 Ry

     total magnetization       =     0.00 Bohr mag/cell
     absolute magnetization    =     0.00 Bohr mag/cell

     iteration #  5     ecut=   100.00 Ry     beta= 0.70
     Davidson diagonalization with overlap

---- Real-time Memory Report at c_bands before calling an iterative solver
           827 MiB given to the printing process from OS
             0 MiB allocation reported by mallinfo(arena+hblkhd)
        440473 MiB available memory on the node where the printing process lives
------------------
     ethr =  3.52E-06,  avg # of iterations =  2.0
                                        
     -----------------------------------
     V[atom i, atom j, #orb(i), #orb(j)]
     -----------------------------------
     [  1,  1,  4,  4  ]
     [  0     0     0  ]
       0.0000   0.0000   0.0000   0.0000
       0.0000   0.3434   0.3434   0.3434
       0.0000   0.3434   0.3434   0.3434
       0.0000   0.3434   0.3434   0.3434
 
     [  1,  2,  4,  4  ]
     [  0     0     0  ]
       0.8164   1.3007   1.3007   1.3007
       0.7989   1.6754   1.6754   1.6754
       0.7989   1.6754   1.6754   1.6754
       0.7989   1.6754   1.6754   1.6754
 
     [  2,  1,  4,  4  ]
     [  0     0     0  ]
       0.8164   0.7989   0.7989   0.7989
       1.3007   1.6754   1.6754   1.6754
       1.3007   1.6754   1.6754   1.6754
       1.3007   1.6754   1.6754   1.6754
 
     [  2,  2,  4,  4  ]
     [  0     0     0  ]
       0.0000   0.0000   0.0000   0.0000
       0.0000   1.9867   1.9867   1.9867
       0.0000   1.9867   1.9867   1.9867
       0.0000   1.9867   1.9867   1.9867
 
     [  1,  2,  4,  4  ]
     [ -1     0     0  ]
       0.8164   1.3007   1.3007   1.3007
       0.7989   1.6754   1.6754   1.6754
       0.7989   1.6754   1.6754   1.6754
       0.7989   1.6754   1.6754   1.6754
 
     [  1,  2,  4,  4  ]
     [  0    -1     0  ]
       0.8164   1.3007   1.3007   1.3007
       0.7989   1.6754   1.6754   1.6754
       0.7989   1.6754   1.6754   1.6754
       0.7989   1.6754   1.6754   1.6754
 
     [  1,  2,  4,  4  ]
     [  0     0    -1  ]
       0.8164   1.3007   1.3007   1.3007
       0.7989   1.6754   1.6754   1.6754
       0.7989   1.6754   1.6754   1.6754
       0.7989   1.6754   1.6754   1.6754
 
     [  2,  1,  4,  4  ]
     [  0     0     1  ]
       0.8164   0.7989   0.7989   0.7989
       1.3007   1.6754   1.6754   1.6754
       1.3007   1.6754   1.6754   1.6754
       1.3007   1.6754   1.6754   1.6754
 
     [  2,  1,  4,  4  ]
     [  0     1     0  ]
       0.8164   0.7989   0.7989   0.7989
       1.3007   1.6754   1.6754   1.6754
       1.3007   1.6754   1.6754   1.6754
       1.3007   1.6754   1.6754   1.6754
 
     [  2,  1,  4,  4  ]
     [  1     0     0  ]
       0.8164   0.7989   0.7989   0.7989
       1.3007   1.6754   1.6754   1.6754
       1.3007   1.6754   1.6754   1.6754
       1.3007   1.6754   1.6754   1.6754
 
 
     =========================
     E(+U+V) = -0.045504351 Ry
     =========================

     total cpu time spent up to now is        7.8 secs

     total energy              =    -365.17183052 Ry
     estimated scf accuracy    <       0.00011737 Ry
     Hubbard accuracy          <       0.00014928 Ry

     total magnetization       =     0.00 Bohr mag/cell
     absolute magnetization    =     0.00 Bohr mag/cell

     iteration #  6     ecut=   100.00 Ry     beta= 0.70
     Davidson diagonalization with overlap

---- Real-time Memory Report at c_bands before calling an iterative solver
           830 MiB given to the printing process from OS
             0 MiB allocation reported by mallinfo(arena+hblkhd)
        440469 MiB available memory on the node where the printing process lives
------------------
     c_bands:  1 eigenvalues not converged
     ethr =  4.19E-07,  avg # of iterations =  4.9
                                        
     -----------------------------------
     V[atom i, atom j, #orb(i), #orb(j)]
     -----------------------------------
     [  1,  1,  4,  4  ]
     [  0     0     0  ]
       0.0000   0.0000   0.0000   0.0000
       0.0000   0.3451   0.3451   0.3451
       0.0000   0.3451   0.3451   0.3451
       0.0000   0.3451   0.3451   0.3451
 
     [  1,  2,  4,  4  ]
     [  0     0     0  ]
       0.8211   1.2982   1.2982   1.2982
       0.8026   1.6765   1.6765   1.6765
       0.8026   1.6765   1.6765   1.6765
       0.8026   1.6765   1.6765   1.6765
 
     [  2,  1,  4,  4  ]
     [  0     0     0  ]
       0.8211   0.8026   0.8026   0.8026
       1.2982   1.6765   1.6765   1.6765
       1.2982   1.6765   1.6765   1.6765
       1.2982   1.6765   1.6765   1.6765
 
     [  2,  2,  4,  4  ]
     [  0     0     0  ]
       0.0000   0.0000   0.0000   0.0000
       0.0000   1.9820   1.9820   1.9820
       0.0000   1.9820   1.9820   1.9820
       0.0000   1.9820   1.9820   1.9820
 
     [  1,  2,  4,  4  ]
     [ -1     0     0  ]
       0.8211   1.2982   1.2982   1.2982
       0.8026   1.6765   1.6765   1.6765
       0.8026   1.6765   1.6765   1.6765
       0.8026   1.6765   1.6765   1.6765
 
     [  1,  2,  4,  4  ]
     [  0    -1     0  ]
       0.8211   1.2982   1.2982   1.2982
       0.8026   1.6765   1.6765   1.6765
       0.8026   1.6765   1.6765   1.6765
       0.8026   1.6765   1.6765   1.6765
 
     [  1,  2,  4,  4  ]
     [  0     0    -1  ]
       0.8211   1.2982   1.2982   1.2982
       0.8026   1.6765   1.6765   1.6765
       0.8026   1.6765   1.6765   1.6765
       0.8026   1.6765   1.6765   1.6765
 
     [  2,  1,  4,  4  ]
     [  0     0     1  ]
       0.8211   0.8026   0.8026   0.8026
       1.2982   1.6765   1.6765   1.6765
       1.2982   1.6765   1.6765   1.6765
       1.2982   1.6765   1.6765   1.6765
 
     [  2,  1,  4,  4  ]
     [  0     1     0  ]
       0.8211   0.8026   0.8026   0.8026
       1.2982   1.6765   1.6765   1.6765
       1.2982   1.6765   1.6765   1.6765
       1.2982   1.6765   1.6765   1.6765
 
     [  2,  1,  4,  4  ]
     [  1     0     0  ]
       0.8211   0.8026   0.8026   0.8026
       1.2982   1.6765   1.6765   1.6765
       1.2982   1.6765   1.6765   1.6765
       1.2982   1.6765   1.6765   1.6765
 
 
     =========================
     E(+U+V) = -0.045747786 Ry
     =========================

     total cpu time spent up to now is        8.5 secs

     total energy              =    -365.17211075 Ry
     estimated scf accuracy    <       0.00000301 Ry
     Hubbard accuracy          <       0.00024343 Ry

     total magnetization       =     0.00 Bohr mag/cell
     absolute magnetization    =     0.00 Bohr mag/cell

     iteration #  7     ecut=   100.00 Ry     beta= 0.70
     Davidson diagonalization with overlap

---- Real-time Memory Report at c_bands before calling an iterative solver
           831 MiB given to the printing process from OS
             0 MiB allocation reported by mallinfo(arena+hblkhd)
        440465 MiB available memory on the node where the printing process lives
------------------
     ethr =  1.08E-08,  avg # of iterations =  5.7
                                        
     -----------------------------------
     V[atom i, atom j, #orb(i), #orb(j)]
     -----------------------------------
     [  1,  1,  4,  4  ]
     [  0     0     0  ]
       0.0000   0.0000   0.0000   0.0000
       0.0000   0.3458   0.3458   0.3458
       0.0000   0.3458   0.3458   0.3458
       0.0000   0.3458   0.3458   0.3458
 
     [  1,  2,  4,  4  ]
     [  0     0     0  ]
       0.8226   1.2973   1.2973   1.2973
       0.8038   1.6769   1.6769   1.6769
       0.8038   1.6769   1.6769   1.6769
       0.8038   1.6769   1.6769   1.6769
 
     [  2,  1,  4,  4  ]
     [  0     0     0  ]
       0.8226   0.8038   0.8038   0.8038
       1.2973   1.6769   1.6769   1.6769
       1.2973   1.6769   1.6769   1.6769
       1.2973   1.6769   1.6769   1.6769
 
     [  2,  2,  4,  4  ]
     [  0     0     0  ]
       0.0000   0.0000   0.0000   0.0000
       0.0000   1.9801   1.9801   1.9801
       0.0000   1.9801   1.9801   1.9801
       0.0000   1.9801   1.9801   1.9801
 
     [  1,  2,  4,  4  ]
     [ -1     0     0  ]
       0.8226   1.2973   1.2973   1.2973
       0.8038   1.6769   1.6769   1.6769
       0.8038   1.6769   1.6769   1.6769
       0.8038   1.6769   1.6769   1.6769
 
     [  1,  2,  4,  4  ]
     [  0    -1     0  ]
       0.8226   1.2973   1.2973   1.2973
       0.8038   1.6769   1.6769   1.6769
       0.8038   1.6769   1.6769   1.6769
       0.8038   1.6769   1.6769   1.6769
 
     [  1,  2,  4,  4  ]
     [  0     0    -1  ]
       0.8226   1.2973   1.2973   1.2973
       0.8038   1.6769   1.6769   1.6769
       0.8038   1.6769   1.6769   1.6769
       0.8038   1.6769   1.6769   1.6769
 
     [  2,  1,  4,  4  ]
     [  0     0     1  ]
       0.8226   0.8038   0.8038   0.8038
       1.2973   1.6769   1.6769   1.6769
       1.2973   1.6769   1.6769   1.6769
       1.2973   1.6769   1.6769   1.6769
 
     [  2,  1,  4,  4  ]
     [  0     1     0  ]
       0.8226   0.8038   0.8038   0.8038
       1.2973   1.6769   1.6769   1.6769
       1.2973   1.6769   1.6769   1.6769
       1.2973   1.6769   1.6769   1.6769
 
     [  2,  1,  4,  4  ]
     [  1     0     0  ]
       0.8226   0.8038   0.8038   0.8038
       1.2973   1.6769   1.6769   1.6769
       1.2973   1.6769   1.6769   1.6769
       1.2973   1.6769   1.6769   1.6769
 
 
     =========================
     E(+U+V) = -0.045839626 Ry
     =========================

     total cpu time spent up to now is        9.3 secs

     total energy              =    -365.17220681 Ry
     estimated scf accuracy    <       0.00000010 Ry
     Hubbard accuracy          <       0.00009184 Ry

     total magnetization       =     0.00 Bohr mag/cell
     absolute magnetization    =     0.00 Bohr mag/cell

     iteration #  8     ecut=   100.00 Ry     beta= 0.70
     Davidson diagonalization with overlap

---- Real-time Memory Report at c_bands before calling an iterative solver
           834 MiB given to the printing process from OS
             0 MiB allocation reported by mallinfo(arena+hblkhd)
        440464 MiB available memory on the node where the printing process lives
------------------
     ethr =  3.43E-10,  avg # of iterations =  5.3
                                        
     -----------------------------------
     V[atom i, atom j, #orb(i), #orb(j)]
     -----------------------------------
     [  1,  1,  4,  4  ]
     [  0     0     0  ]
       0.0000   0.0000   0.0000   0.0000
       0.0000   0.3460   0.3460   0.3460
       0.0000   0.3460   0.3460   0.3460
       0.0000   0.3460   0.3460   0.3460
 
     [  1,  2,  4,  4  ]
     [  0     0     0  ]
       0.8230   1.2971   1.2971   1.2971
       0.8041   1.6770   1.6770   1.6770
       0.8041   1.6770   1.6770   1.6770
       0.8041   1.6770   1.6770   1.6770
 
     [  2,  1,  4,  4  ]
     [  0     0     0  ]
       0.8230   0.8041   0.8041   0.8041
       1.2971   1.6770   1.6770   1.6770
       1.2971   1.6770   1.6770   1.6770
       1.2971   1.6770   1.6770   1.6770
 
     [  2,  2,  4,  4  ]
     [  0     0     0  ]
       0.0000   0.0000   0.0000   0.0000
       0.0000   1.9795   1.9795   1.9795
       0.0000   1.9795   1.9795   1.9795
       0.0000   1.9795   1.9795   1.9795
 
     [  1,  2,  4,  4  ]
     [ -1     0     0  ]
       0.8230   1.2971   1.2971   1.2971
       0.8041   1.6770   1.6770   1.6770
       0.8041   1.6770   1.6770   1.6770
       0.8041   1.6770   1.6770   1.6770
 
     [  1,  2,  4,  4  ]
     [  0    -1     0  ]
       0.8230   1.2971   1.2971   1.2971
       0.8041   1.6770   1.6770   1.6770
       0.8041   1.6770   1.6770   1.6770
       0.8041   1.6770   1.6770   1.6770
 
     [  1,  2,  4,  4  ]
     [  0     0    -1  ]
       0.8230   1.2971   1.2971   1.2971
       0.8041   1.6770   1.6770   1.6770
       0.8041   1.6770   1.6770   1.6770
       0.8041   1.6770   1.6770   1.6770
 
     [  2,  1,  4,  4  ]
     [  0     0     1  ]
       0.8230   0.8041   0.8041   0.8041
       1.2971   1.6770   1.6770   1.6770
       1.2971   1.6770   1.6770   1.6770
       1.2971   1.6770   1.6770   1.6770
 
     [  2,  1,  4,  4  ]
     [  0     1     0  ]
       0.8230   0.8041   0.8041   0.8041
       1.2971   1.6770   1.6770   1.6770
       1.2971   1.6770   1.6770   1.6770
       1.2971   1.6770   1.6770   1.6770
 
     [  2,  1,  4,  4  ]
     [  1     0     0  ]
       0.8230   0.8041   0.8041   0.8041
       1.2971   1.6770   1.6770   1.6770
       1.2971   1.6770   1.6770   1.6770
       1.2971   1.6770   1.6770   1.6770
 
 
     =========================
     E(+U+V) = -0.045868303 Ry
     =========================

     total cpu time spent up to now is       10.0 secs

     total energy              =    -365.17223852 Ry
     estimated scf accuracy    <       0.00000001 Ry
     Hubbard accuracy          <       0.00002868 Ry

     total magnetization       =     0.00 Bohr mag/cell
     absolute magnetization    =     0.00 Bohr mag/cell

     iteration #  9     ecut=   100.00 Ry     beta= 0.70
     Davidson diagonalization with overlap

---- Real-time Memory Report at c_bands before calling an iterative solver
           837 MiB given to the printing process from OS
             0 MiB allocation reported by mallinfo(arena+hblkhd)
        440461 MiB available memory on the node where the printing process lives
------------------
     ethr =  5.32E-11,  avg # of iterations =  3.2
                                        
     -----------------------------------
     V[atom i, atom j, #orb(i), #orb(j)]
     -----------------------------------
     [  1,  1,  4,  4  ]
     [  0     0     0  ]
       0.0000   0.0000   0.0000   0.0000
       0.0000   0.3460   0.3460   0.3460
       0.0000   0.3460   0.3460   0.3460
       0.0000   0.3460   0.3460   0.3460
 
     [  1,  2,  4,  4  ]
     [  0     0     0  ]
       0.8230   1.2971   1.2971   1.2971
       0.8042   1.6770   1.6770   1.6770
       0.8042   1.6770   1.6770   1.6770
       0.8042   1.6770   1.6770   1.6770
 
     [  2,  1,  4,  4  ]
     [  0     0     0  ]
       0.8230   0.8042   0.8042   0.8042
       1.2971   1.6770   1.6770   1.6770
       1.2971   1.6770   1.6770   1.6770
       1.2971   1.6770   1.6770   1.6770
 
     [  2,  2,  4,  4  ]
     [  0     0     0  ]
       0.0000   0.0000   0.0000   0.0000
       0.0000   1.9794   1.9794   1.9794
       0.0000   1.9794   1.9794   1.9794
       0.0000   1.9794   1.9794   1.9794
 
     [  1,  2,  4,  4  ]
     [ -1     0     0  ]
       0.8230   1.2971   1.2971   1.2971
       0.8042   1.6770   1.6770   1.6770
       0.8042   1.6770   1.6770   1.6770
       0.8042   1.6770   1.6770   1.6770
 
     [  1,  2,  4,  4  ]
     [  0    -1     0  ]
       0.8230   1.2971   1.2971   1.2971
       0.8042   1.6770   1.6770   1.6770
       0.8042   1.6770   1.6770   1.6770
       0.8042   1.6770   1.6770   1.6770
 
     [  1,  2,  4,  4  ]
     [  0     0    -1  ]
       0.8230   1.2971   1.2971   1.2971
       0.8042   1.6770   1.6770   1.6770
       0.8042   1.6770   1.6770   1.6770
       0.8042   1.6770   1.6770   1.6770
 
     [  2,  1,  4,  4  ]
     [  0     0     1  ]
       0.8230   0.8042   0.8042   0.8042
       1.2971   1.6770   1.6770   1.6770
       1.2971   1.6770   1.6770   1.6770
       1.2971   1.6770   1.6770   1.6770
 
     [  2,  1,  4,  4  ]
     [  0     1     0  ]
       0.8230   0.8042   0.8042   0.8042
       1.2971   1.6770   1.6770   1.6770
       1.2971   1.6770   1.6770   1.6770
       1.2971   1.6770   1.6770   1.6770
 
     [  2,  1,  4,  4  ]
     [  1     0     0  ]
       0.8230   0.8042   0.8042   0.8042
       1.2971   1.6770   1.6770   1.6770
       1.2971   1.6770   1.6770   1.6770
       1.2971   1.6770   1.6770   1.6770
 
 
     =========================
     E(+U+V) = -0.045873841 Ry
     =========================

     total cpu time spent up to now is       10.7 secs

     total energy              =    -365.17224265 Ry
     estimated scf accuracy    <          8.9E-10 Ry
     Hubbard accuracy          <       0.00000554 Ry

     total magnetization       =     0.00 Bohr mag/cell
     absolute magnetization    =     0.00 Bohr mag/cell

     iteration # 10     ecut=   100.00 Ry     beta= 0.70
     Davidson diagonalization with overlap

---- Real-time Memory Report at c_bands before calling an iterative solver
           838 MiB given to the printing process from OS
             0 MiB allocation reported by mallinfo(arena+hblkhd)
        440456 MiB available memory on the node where the printing process lives
------------------
     ethr =  3.19E-12,  avg # of iterations =  5.1
                                        
     -----------------------------------
     V[atom i, atom j, #orb(i), #orb(j)]
     -----------------------------------
     [  1,  1,  4,  4  ]
     [  0     0     0  ]
       0.0000   0.0000   0.0000   0.0000
       0.0000   0.3460   0.3460   0.3460
       0.0000   0.3460   0.3460   0.3460
       0.0000   0.3460   0.3460   0.3460
 
     [  1,  2,  4,  4  ]
     [  0     0     0  ]
       0.8230   1.2971   1.2971   1.2971
       0.8042   1.6770   1.6770   1.6770
       0.8042   1.6770   1.6770   1.6770
       0.8042   1.6770   1.6770   1.6770
 
     [  2,  1,  4,  4  ]
     [  0     0     0  ]
       0.8230   0.8042   0.8042   0.8042
       1.2971   1.6770   1.6770   1.6770
       1.2971   1.6770   1.6770   1.6770
       1.2971   1.6770   1.6770   1.6770
 
     [  2,  2,  4,  4  ]
     [  0     0     0  ]
       0.0000   0.0000   0.0000   0.0000
       0.0000   1.9794   1.9794   1.9794
       0.0000   1.9794   1.9794   1.9794
       0.0000   1.9794   1.9794   1.9794
 
     [  1,  2,  4,  4  ]
     [ -1     0     0  ]
       0.8230   1.2971   1.2971   1.2971
       0.8042   1.6770   1.6770   1.6770
       0.8042   1.6770   1.6770   1.6770
       0.8042   1.6770   1.6770   1.6770
 
     [  1,  2,  4,  4  ]
     [  0    -1     0  ]
       0.8230   1.2971   1.2971   1.2971
       0.8042   1.6770   1.6770   1.6770
       0.8042   1.6770   1.6770   1.6770
       0.8042   1.6770   1.6770   1.6770
 
     [  1,  2,  4,  4  ]
     [  0     0    -1  ]
       0.8230   1.2971   1.2971   1.2971
       0.8042   1.6770   1.6770   1.6770
       0.8042   1.6770   1.6770   1.6770
       0.8042   1.6770   1.6770   1.6770
 
     [  2,  1,  4,  4  ]
     [  0     0     1  ]
       0.8230   0.8042   0.8042   0.8042
       1.2971   1.6770   1.6770   1.6770
       1.2971   1.6770   1.6770   1.6770
       1.2971   1.6770   1.6770   1.6770
 
     [  2,  1,  4,  4  ]
     [  0     1     0  ]
       0.8230   0.8042   0.8042   0.8042
       1.2971   1.6770   1.6770   1.6770
       1.2971   1.6770   1.6770   1.6770
       1.2971   1.6770   1.6770   1.6770
 
     [  2,  1,  4,  4  ]
     [  1     0     0  ]
       0.8230   0.8042   0.8042   0.8042
       1.2971   1.6770   1.6770   1.6770
       1.2971   1.6770   1.6770   1.6770
       1.2971   1.6770   1.6770   1.6770
 
 
     =========================
     E(+U+V) = -0.045874077 Ry
     =========================

     total cpu time spent up to now is       11.4 secs

     total energy              =    -365.17224277 Ry
     estimated scf accuracy    <          1.1E-12 Ry
     Hubbard accuracy          <       0.00000024 Ry

     total magnetization       =     0.00 Bohr mag/cell
     absolute magnetization    =     0.00 Bohr mag/cell

     iteration # 11     ecut=   100.00 Ry     beta= 0.70
     Davidson diagonalization with overlap

---- Real-time Memory Report at c_bands before calling an iterative solver
           840 MiB given to the printing process from OS
             0 MiB allocation reported by mallinfo(arena+hblkhd)
        440454 MiB available memory on the node where the printing process lives
------------------
     ethr =  1.00E-13,  avg # of iterations =  5.5
                                        
     -----------------------------------
     V[atom i, atom j, #orb(i), #orb(j)]
     -----------------------------------
     [  1,  1,  4,  4  ]
     [  0     0     0  ]
       0.0000   0.0000   0.0000   0.0000
       0.0000   0.3460   0.3460   0.3460
       0.0000   0.3460   0.3460   0.3460
       0.0000   0.3460   0.3460   0.3460
 
     [  1,  2,  4,  4  ]
     [  0     0     0  ]
       0.8230   1.2971   1.2971   1.2971
       0.8042   1.6770   1.6770   1.6770
       0.8042   1.6770   1.6770   1.6770
       0.8042   1.6770   1.6770   1.6770
 
     [  2,  1,  4,  4  ]
     [  0     0     0  ]
       0.8230   0.8042   0.8042   0.8042
       1.2971   1.6770   1.6770   1.6770
       1.2971   1.6770   1.6770   1.6770
       1.2971   1.6770   1.6770   1.6770
 
     [  2,  2,  4,  4  ]
     [  0     0     0  ]
       0.0000   0.0000   0.0000   0.0000
       0.0000   1.9794   1.9794   1.9794
       0.0000   1.9794   1.9794   1.9794
       0.0000   1.9794   1.9794   1.9794
 
     [  1,  2,  4,  4  ]
     [ -1     0     0  ]
       0.8230   1.2971   1.2971   1.2971
       0.8042   1.6770   1.6770   1.6770
       0.8042   1.6770   1.6770   1.6770
       0.8042   1.6770   1.6770   1.6770
 
     [  1,  2,  4,  4  ]
     [  0    -1     0  ]
       0.8230   1.2971   1.2971   1.2971
       0.8042   1.6770   1.6770   1.6770
       0.8042   1.6770   1.6770   1.6770
       0.8042   1.6770   1.6770   1.6770
 
     [  1,  2,  4,  4  ]
     [  0     0    -1  ]
       0.8230   1.2971   1.2971   1.2971
       0.8042   1.6770   1.6770   1.6770
       0.8042   1.6770   1.6770   1.6770
       0.8042   1.6770   1.6770   1.6770
 
     [  2,  1,  4,  4  ]
     [  0     0     1  ]
       0.8230   0.8042   0.8042   0.8042
       1.2971   1.6770   1.6770   1.6770
       1.2971   1.6770   1.6770   1.6770
       1.2971   1.6770   1.6770   1.6770
 
     [  2,  1,  4,  4  ]
     [  0     1     0  ]
       0.8230   0.8042   0.8042   0.8042
       1.2971   1.6770   1.6770   1.6770
       1.2971   1.6770   1.6770   1.6770
       1.2971   1.6770   1.6770   1.6770
 
     [  2,  1,  4,  4  ]
     [  1     0     0  ]
       0.8230   0.8042   0.8042   0.8042
       1.2971   1.6770   1.6770   1.6770
       1.2971   1.6770   1.6770   1.6770
       1.2971   1.6770   1.6770   1.6770
 
 
     =========================
     E(+U+V) = -0.045874024 Ry
     =========================

     total cpu time spent up to now is       12.0 secs

     total energy              =    -365.17224277 Ry
     estimated scf accuracy    <          1.0E-12 Ry
     Hubbard accuracy          <       0.00000005 Ry

     total magnetization       =     0.00 Bohr mag/cell
     absolute magnetization    =     0.00 Bohr mag/cell

     iteration # 12     ecut=   100.00 Ry     beta= 0.70
     Davidson diagonalization with overlap

---- Real-time Memory Report at c_bands before calling an iterative solver
           842 MiB given to the printing process from OS
             0 MiB allocation reported by mallinfo(arena+hblkhd)
        440451 MiB available memory on the node where the printing process lives
------------------
     ethr =  1.00E-13,  avg # of iterations =  1.0
                                        
     -----------------------------------
     V[atom i, atom j, #orb(i), #orb(j)]
     -----------------------------------
     [  1,  1,  4,  4  ]
     [  0     0     0  ]
       0.0000   0.0000   0.0000   0.0000
       0.0000   0.3460   0.3460   0.3460
       0.0000   0.3460   0.3460   0.3460
       0.0000   0.3460   0.3460   0.3460
 
     [  1,  2,  4,  4  ]
     [  0     0     0  ]
       0.8230   1.2971   1.2971   1.2971
       0.8042   1.6770   1.6770   1.6770
       0.8042   1.6770   1.6770   1.6770
       0.8042   1.6770   1.6770   1.6770
 
     [  2,  1,  4,  4  ]
     [  0     0     0  ]
       0.8230   0.8042   0.8042   0.8042
       1.2971   1.6770   1.6770   1.6770
       1.2971   1.6770   1.6770   1.6770
       1.2971   1.6770   1.6770   1.6770
 
     [  2,  2,  4,  4  ]
     [  0     0     0  ]
       0.0000   0.0000   0.0000   0.0000
       0.0000   1.9794   1.9794   1.9794
       0.0000   1.9794   1.9794   1.9794
       0.0000   1.9794   1.9794   1.9794
 
     [  1,  2,  4,  4  ]
     [ -1     0     0  ]
       0.8230   1.2971   1.2971   1.2971
       0.8042   1.6770   1.6770   1.6770
       0.8042   1.6770   1.6770   1.6770
       0.8042   1.6770   1.6770   1.6770
 
     [  1,  2,  4,  4  ]
     [  0    -1     0  ]
       0.8230   1.2971   1.2971   1.2971
       0.8042   1.6770   1.6770   1.6770
       0.8042   1.6770   1.6770   1.6770
       0.8042   1.6770   1.6770   1.6770
 
     [  1,  2,  4,  4  ]
     [  0     0    -1  ]
       0.8230   1.2971   1.2971   1.2971
       0.8042   1.6770   1.6770   1.6770
       0.8042   1.6770   1.6770   1.6770
       0.8042   1.6770   1.6770   1.6770
 
     [  2,  1,  4,  4  ]
     [  0     0     1  ]
       0.8230   0.8042   0.8042   0.8042
       1.2971   1.6770   1.6770   1.6770
       1.2971   1.6770   1.6770   1.6770
       1.2971   1.6770   1.6770   1.6770
 
     [  2,  1,  4,  4  ]
     [  0     1     0  ]
       0.8230   0.8042   0.8042   0.8042
       1.2971   1.6770   1.6770   1.6770
       1.2971   1.6770   1.6770   1.6770
       1.2971   1.6770   1.6770   1.6770
 
     [  2,  1,  4,  4  ]
     [  1     0     0  ]
       0.8230   0.8042   0.8042   0.8042
       1.2971   1.6770   1.6770   1.6770
       1.2971   1.6770   1.6770   1.6770
       1.2971   1.6770   1.6770   1.6770
 
 
     =========================
     E(+U+V) = -0.045874030 Ry
     =========================

     total cpu time spent up to now is       12.5 secs

     total energy              =    -365.17224278 Ry
     estimated scf accuracy    <          8.2E-14 Ry
     Hubbard accuracy          <          6.3E-09 Ry

     total magnetization       =     0.00 Bohr mag/cell
     absolute magnetization    =     0.00 Bohr mag/cell

     iteration # 13     ecut=   100.00 Ry     beta= 0.70
     Davidson diagonalization with overlap

---- Real-time Memory Report at c_bands before calling an iterative solver
           842 MiB given to the printing process from OS
             0 MiB allocation reported by mallinfo(arena+hblkhd)
        440446 MiB available memory on the node where the printing process lives
------------------
     ethr =  1.00E-13,  avg # of iterations =  1.0
                                        
     -----------------------------------
     V[atom i, atom j, #orb(i), #orb(j)]
     -----------------------------------
     [  1,  1,  4,  4  ]
     [  0     0     0  ]
       0.0000   0.0000   0.0000   0.0000
       0.0000   0.3460   0.3460   0.3460
       0.0000   0.3460   0.3460   0.3460
       0.0000   0.3460   0.3460   0.3460
 
     [  1,  2,  4,  4  ]
     [  0     0     0  ]
       0.8230   1.2971   1.2971   1.2971
       0.8042   1.6770   1.6770   1.6770
       0.8042   1.6770   1.6770   1.6770
       0.8042   1.6770   1.6770   1.6770
 
     [  2,  1,  4,  4  ]
     [  0     0     0  ]
       0.8230   0.8042   0.8042   0.8042
       1.2971   1.6770   1.6770   1.6770
       1.2971   1.6770   1.6770   1.6770
       1.2971   1.6770   1.6770   1.6770
 
     [  2,  2,  4,  4  ]
     [  0     0     0  ]
       0.0000   0.0000   0.0000   0.0000
       0.0000   1.9794   1.9794   1.9794
       0.0000   1.9794   1.9794   1.9794
       0.0000   1.9794   1.9794   1.9794
 
     [  1,  2,  4,  4  ]
     [ -1     0     0  ]
       0.8230   1.2971   1.2971   1.2971
       0.8042   1.6770   1.6770   1.6770
       0.8042   1.6770   1.6770   1.6770
       0.8042   1.6770   1.6770   1.6770
 
     [  1,  2,  4,  4  ]
     [  0    -1     0  ]
       0.8230   1.2971   1.2971   1.2971
       0.8042   1.6770   1.6770   1.6770
       0.8042   1.6770   1.6770   1.6770
       0.8042   1.6770   1.6770   1.6770
 
     [  1,  2,  4,  4  ]
     [  0     0    -1  ]
       0.8230   1.2971   1.2971   1.2971
       0.8042   1.6770   1.6770   1.6770
       0.8042   1.6770   1.6770   1.6770
       0.8042   1.6770   1.6770   1.6770
 
     [  2,  1,  4,  4  ]
     [  0     0     1  ]
       0.8230   0.8042   0.8042   0.8042
       1.2971   1.6770   1.6770   1.6770
       1.2971   1.6770   1.6770   1.6770
       1.2971   1.6770   1.6770   1.6770
 
     [  2,  1,  4,  4  ]
     [  0     1     0  ]
       0.8230   0.8042   0.8042   0.8042
       1.2971   1.6770   1.6770   1.6770
       1.2971   1.6770   1.6770   1.6770
       1.2971   1.6770   1.6770   1.6770
 
     [  2,  1,  4,  4  ]
     [  1     0     0  ]
       0.8230   0.8042   0.8042   0.8042
       1.2971   1.6770   1.6770   1.6770
       1.2971   1.6770   1.6770   1.6770
       1.2971   1.6770   1.6770   1.6770
 
 
     =========================
     E(+U+V) = -0.045874038 Ry
     =========================
 
     Magnetic moment per site  (integrated on atomic sphere of radius R)
     atom   1 (R=0.253)  charge= 11.0419  magn=  0.0000
     atom   2 (R=0.253)  charge= 12.6698  magn=  0.0000

     total cpu time spent up to now is       13.0 secs

     End of self-consistent calculation

 ------ SPIN UP ------------


          k = 0.0000 0.0000 0.0000 (  5029 PWs)   bands (ev):

[...]

     occupation numbers 
     1.0000   1.0000   1.0000   1.0000   1.0000   1.0000   1.0000   1.0000
     1.0000   1.0000   1.0000   1.0000   1.0000   1.0000   0.0000   0.0000
     0.0000   0.0000   0.0000   0.0000   0.0000   0.0000   0.0000   0.0000

          k =-0.5577 0.6506 0.0000 (  5321 PWs)   bands (ev):

   -26.8813 -26.8795 -26.8793 -26.8733 -26.8723  -6.4980  -6.3546  -6.3520
    -6.3405  -6.3133  -2.1175   0.9629   4.3520   4.8471  10.7888  11.5221
    17.3577  17.5270  19.2004  20.4826  21.3804  22.4009  24.1242  24.9876

     occupation numbers 
     1.0000   1.0000   1.0000   1.0000   1.0000   1.0000   1.0000   1.0000
     1.0000   1.0000   1.0000   1.0000   1.0000   1.0000   0.0000   0.0000
     0.0000   0.0000   0.0000   0.0000   0.0000   0.0000   0.0000   0.0000

          k = 0.1859-0.0000 0.3718 (  5311 PWs)   bands (ev):

   -26.8810 -26.8801 -26.8800 -26.8731 -26.8726  -6.4623  -6.3733  -6.3712
    -6.3303  -6.3174  -3.3031   2.8331   5.1548   6.3222  11.8167  12.1364
    14.0097  15.3992  17.0881  19.5197  19.9447  21.5151  22.7481  23.8242

     occupation numbers 
     1.0000   1.0000   1.0000   1.0000   1.0000   1.0000   1.0000   1.0000
     1.0000   1.0000   1.0000   1.0000   1.0000   1.0000   0.0000   0.0000
     0.0000   0.0000   0.0000   0.0000   0.0000   0.0000   0.0000   0.0000

          k = 0.2324-0.0465 0.4183 (  5312 PWs)   bands (ev):

   -26.8809 -26.8800 -26.8799 -26.8731 -26.8726  -6.4716  -6.3708  -6.3678
    -6.3300  -6.3176  -2.9938   2.1686   4.7199   6.0482  11.8491  12.7000
    13.9287  15.7730  17.6095  19.4220  20.7911  21.5089  22.7287  24.6639

     occupation numbers 
     1.0000   1.0000   1.0000   1.0000   1.0000   1.0000   1.0000   1.0000
     1.0000   1.0000   1.0000   1.0000   1.0000   1.0000   0.0000   0.0000
     0.0000   0.0000   0.0000   0.0000   0.0000   0.0000   0.0000   0.0000

          k =-0.4183 0.6042-0.2324 (  5310 PWs)   bands (ev):

   -26.8808 -26.8801 -26.8797 -26.8730 -26.8726  -6.4784  -6.3696  -6.3653
    -6.3288  -6.3183  -2.6885   1.5729   4.4695   5.8061  11.7953  13.0051
    14.4047  15.9063  17.9375  19.1249  20.5920  21.9878  23.5703  24.3039

     occupation numbers 
     1.0000   1.0000   1.0000   1.0000   1.0000   1.0000   1.0000   1.0000
     1.0000   1.0000   1.0000   1.0000   1.0000   1.0000   0.0000   0.0000
     0.0000   0.0000   0.0000   0.0000   0.0000   0.0000   0.0000   0.0000

          k =-0.3718 0.5577-0.1859 (  5313 PWs)   bands (ev):

   -26.8807 -26.8801 -26.8797 -26.8730 -26.8726  -6.4820  -6.3692  -6.3639
    -6.3276  -6.3191  -2.4823   1.2048   4.3591   5.6669  11.7632  13.0119
    15.1244  16.1512  17.0529  19.9082  20.4502  21.4175  24.1362  25.4902

     occupation numbers 
     1.0000   1.0000   1.0000   1.0000   1.0000   1.0000   1.0000   1.0000
     1.0000   1.0000   1.0000   1.0000   1.0000   1.0000   0.0000   0.0000
     0.0000   0.0000   0.0000   0.0000   0.0000   0.0000   0.0000   0.0000

          k = 0.1859-0.0000 0.4647 (  5312 PWs)   bands (ev):

   -26.8811 -26.8799 -26.8797 -26.8732 -26.8725  -6.4783  -6.3662  -6.3633
    -6.3342  -6.3158  -2.8784   2.0861   4.7202   5.5734  11.7256  12.0937
    14.2921  16.7010  17.9590  19.9997  21.0815  22.1526  22.5865  24.6022

     occupation numbers 
     1.0000   1.0000   1.0000   1.0000   1.0000   1.0000   1.0000   1.0000
     1.0000   1.0000   1.0000   1.0000   1.0000   1.0000   0.0000   0.0000
     0.0000   0.0000   0.0000   0.0000   0.0000   0.0000   0.0000   0.0000

          k =-0.4647 0.6506-0.1859 (  5314 PWs)   bands (ev):

   -26.8810 -26.8799 -26.8796 -26.8731 -26.8725  -6.4839  -6.3654  -6.3606
    -6.3332  -6.3167  -2.5885   1.6076   4.3397   5.3317  11.8854  12.7713
    14.0873  16.9487  18.1175  19.5374  21.7188  21.9817  23.5426  23.9988

     occupation numbers 
     1.0000   1.0000   1.0000   1.0000   1.0000   1.0000   1.0000   1.0000
     1.0000   1.0000   1.0000   1.0000   1.0000   1.0000   0.0000   0.0000
     0.0000   0.0000   0.0000   0.0000   0.0000   0.0000   0.0000   0.0000

          k =-0.4183 0.6042-0.1394 (  5310 PWs)   bands (ev):

   -26.8808 -26.8800 -26.8795 -26.8731 -26.8725  -6.4868  -6.3656  -6.3593
    -6.3315  -6.3181  -2.3662   1.2674   4.0732   5.2134  11.9418  13.4257
    14.2827  16.6225  17.4703  20.2932  21.2406  21.7337  24.3080  25.0264

     occupation numbers 
     1.0000   1.0000   1.0000   1.0000   1.0000   1.0000   1.0000   1.0000
     1.0000   1.0000   1.0000   1.0000   1.0000   1.0000   0.0000   0.0000
     0.0000   0.0000   0.0000   0.0000   0.0000   0.0000   0.0000   0.0000

          k =-0.3718 0.5577-0.0929 (  5304 PWs)   bands (ev):

   -26.8807 -26.8801 -26.8795 -26.8731 -26.8726  -6.4869  -6.3663  -6.3594
    -6.3300  -6.3194  -2.3075   1.1846   3.9322   5.2579  12.0418  13.4519
    15.0211  15.9095  17.1809  19.9509  21.4949  21.7868  24.9413  25.3230

     occupation numbers 
     1.0000   1.0000   1.0000   1.0000   1.0000   1.0000   1.0000   1.0000
     1.0000   1.0000   1.0000   1.0000   1.0000   1.0000   0.0000   0.0000
     0.0000   0.0000   0.0000   0.0000   0.0000   0.0000   0.0000   0.0000

          k =-0.3253 0.5112-0.0465 (  5304 PWs)   bands (ev):

   -26.8807 -26.8801 -26.8796 -26.8730 -26.8726  -6.4841  -6.3673  -6.3610
    -6.3296  -6.3196  -2.4439   1.3852   3.9591   5.4477  12.1634  13.3880
    14.3391  16.6211  17.1122  18.9185  21.7250  22.4844  23.9780  24.7922

     occupation numbers 
     1.0000   1.0000   1.0000   1.0000   1.0000   1.0000   1.0000   1.0000
     1.0000   1.0000   1.0000   1.0000   1.0000   1.0000   0.0000   0.0000
     0.0000   0.0000   0.0000   0.0000   0.0000   0.0000   0.0000   0.0000

          k =-0.2788 0.4647 0.0000 (  5304 PWs)   bands (ev):

   -26.8808 -26.8801 -26.8797 -26.8731 -26.8726  -6.4789  -6.3687  -6.3640
    -6.3299  -6.3186  -2.7032   1.7579   4.2108   5.7358  12.2107  13.0605
    13.8015  16.5317  17.5487  18.7434  21.6723  21.9983  23.0485  24.9797

     occupation numbers 
     1.0000   1.0000   1.0000   1.0000   1.0000   1.0000   1.0000   1.0000
     1.0000   1.0000   1.0000   1.0000   1.0000   1.0000   0.0000   0.0000
     0.0000   0.0000   0.0000   0.0000   0.0000   0.0000   0.0000   0.0000

          k =-0.5112 0.6971-0.1394 (  5309 PWs)   bands (ev):

   -26.8812 -26.8797 -26.8794 -26.8732 -26.8724  -6.4899  -6.3603  -6.3569
    -6.3371  -6.3149  -2.4504   1.4525   4.4571   4.9680  11.5607  11.8847
    15.1323  17.7306  18.4966  19.9864  21.8894  22.5259  23.5515  23.9942

     occupation numbers 
     1.0000   1.0000   1.0000   1.0000   1.0000   1.0000   1.0000   1.0000
     1.0000   1.0000   1.0000   1.0000   1.0000   1.0000   0.0000   0.0000
     0.0000   0.0000   0.0000   0.0000   0.0000   0.0000   0.0000   0.0000

          k =-0.4647 0.6506-0.0929 (  5308 PWs)   bands (ev):

   -26.8810 -26.8799 -26.8794 -26.8732 -26.8724  -6.4918  -6.3611  -6.3559
    -6.3352  -6.3164  -2.2456   1.1973   4.1185   4.8189  11.7648  12.6976
    14.8882  16.9472  18.4914  20.4919  21.3346  22.6333  24.0790  24.8496

     occupation numbers 
     1.0000   1.0000   1.0000   1.0000   1.0000   1.0000   1.0000   1.0000
     1.0000   1.0000   1.0000   1.0000   1.0000   1.0000   0.0000   0.0000
     0.0000   0.0000   0.0000   0.0000   0.0000   0.0000   0.0000   0.0000

          k =-0.4183 0.6042-0.0465 (  5314 PWs)   bands (ev):

   -26.8809 -26.8800 -26.8794 -26.8731 -26.8725  -6.4913  -6.3630  -6.3562
    -6.3329  -6.3183  -2.1671   1.1181   3.8294   4.8911  11.8968  13.7603
    14.7350  15.7577  18.3243  20.0706  21.6481  22.8347  24.3281  25.2927

     occupation numbers 
     1.0000   1.0000   1.0000   1.0000   1.0000   1.0000   1.0000   1.0000
     1.0000   1.0000   1.0000   1.0000   1.0000   1.0000   0.0000   0.0000
     0.0000   0.0000   0.0000   0.0000   0.0000   0.0000   0.0000   0.0000

          k =-0.3718 0.5577 0.0000 (  5318 PWs)   bands (ev):

   -26.8807 -26.8801 -26.8795 -26.8731 -26.8726  -6.4886  -6.3651  -6.3578
    -6.3309  -6.3197  -2.2472   1.2104   3.7453   5.1191  12.0669  14.2658
    14.3722  15.5561  17.8841  19.1785  22.3172  22.9970  23.8182  24.8826

     occupation numbers 
     1.0000   1.0000   1.0000   1.0000   1.0000   1.0000   1.0000   1.0000
     1.0000   1.0000   1.0000   1.0000   1.0000   1.0000   0.0000   0.0000
     0.0000   0.0000   0.0000   0.0000   0.0000   0.0000   0.0000   0.0000

          k =-0.5112 0.6971-0.0465 (  5312 PWs)   bands (ev):

   -26.8812 -26.8797 -26.8793 -26.8733 -26.8723  -6.4959  -6.3567  -6.3541
    -6.3381  -6.3146  -2.1495   1.0502   4.3896   4.5800  11.4948  11.7109
    16.1582  17.1994  19.3694  20.5863  21.4389  22.0839  24.5867  25.2899

     occupation numbers 
     1.0000   1.0000   1.0000   1.0000   1.0000   1.0000   1.0000   1.0000
     1.0000   1.0000   1.0000   1.0000   1.0000   1.0000   0.0000   0.0000
     0.0000   0.0000   0.0000   0.0000   0.0000   0.0000   0.0000   0.0000

          k =-0.4647 0.6506 0.0000 (  5312 PWs)   bands (ev):

   -26.8810 -26.8798 -26.8793 -26.8732 -26.8724  -6.4945  -6.3595  -6.3545
    -6.3357  -6.3164  -2.1031   1.0373   4.0506   4.6293  11.7144  12.6477
    15.8862  15.9442  19.2743  20.4001  21.4479  22.4190  25.0360  25.4401

     occupation numbers 
     1.0000   1.0000   1.0000   1.0000   1.0000   1.0000   1.0000   1.0000
     1.0000   1.0000   1.0000   1.0000   1.0000   1.0000   0.0000   0.0000
     0.0000   0.0000   0.0000   0.0000   0.0000   0.0000   0.0000   0.0000

          k =-0.4183 0.6971-0.1394 (  5318 PWs)   bands (ev):

   -26.8809 -26.8800 -26.8795 -26.8731 -26.8725  -6.4881  -6.3645  -6.3580
    -6.3325  -6.3180  -2.3481   1.3364   4.0268   4.9938  12.6867  12.8889
    13.8719  16.7799  18.0575  19.5085  22.1898  22.6471  23.5156  24.6981

     occupation numbers 
     1.0000   1.0000   1.0000   1.0000   1.0000   1.0000   1.0000   1.0000
     1.0000   1.0000   1.0000   1.0000   1.0000   1.0000   0.0000   0.0000
     0.0000   0.0000   0.0000   0.0000   0.0000   0.0000   0.0000   0.0000

          k =-0.3718 0.6506-0.0929 (  5304 PWs)   bands (ev):

   -26.8808 -26.8801 -26.8794 -26.8731 -26.8725  -6.4902  -6.3642  -6.3567
    -6.3317  -6.3191  -2.1954   1.1651   3.8850   4.7815  12.7802  13.4204
    14.1911  15.5781  18.3775  20.2828  21.4943  22.6414  24.1972  25.1771

     occupation numbers 
     1.0000   1.0000   1.0000   1.0000   1.0000   1.0000   1.0000   1.0000
     1.0000   1.0000   1.0000   1.0000   1.0000   1.0000   0.0000   0.0000
     0.0000   0.0000   0.0000   0.0000   0.0000   0.0000   0.0000   0.0000

          k =-0.4183 0.6971-0.0465 (  5314 PWs)   bands (ev):

   -26.8809 -26.8800 -26.8793 -26.8732 -26.8725  -6.4929  -6.3616  -6.3553
    -6.3336  -6.3179  -2.1184   1.0932   4.0729   4.4341  12.7421  12.8070
    14.6332  15.6937  19.3597  20.5393  21.4247  22.2414  24.6818  25.4161

     occupation numbers 
     1.0000   1.0000   1.0000   1.0000   1.0000   1.0000   1.0000   1.0000
     1.0000   1.0000   1.0000   1.0000   1.0000   1.0000   0.0000   0.0000
     0.0000   0.0000   0.0000   0.0000   0.0000   0.0000   0.0000   0.0000

          k =-0.3718 0.6506 0.0000 (  5319 PWs)   bands (ev):

   -26.8808 -26.8801 -26.8793 -26.8732 -26.8725  -6.4923  -6.3628  -6.3555
    -6.3323  -6.3191  -2.1009   1.0921   3.9417   4.4531  12.9024  13.7801
    14.2966  14.7678  19.3310  20.4637  21.4371  22.3705  24.7100  25.3360

     occupation numbers 
     1.0000   1.0000   1.0000   1.0000   1.0000   1.0000   1.0000   1.0000
     1.0000   1.0000   1.0000   1.0000   1.0000   1.0000   0.0000   0.0000
     0.0000   0.0000   0.0000   0.0000   0.0000   0.0000   0.0000   0.0000

     the Fermi energy is     8.4014 ev

!    total energy              =    -365.17373399 Ry
     estimated scf accuracy    <          3.9E-17 Ry
     Hubbard accuracy          <          9.8E-10 Ry
     smearing contrib. (-TS)   =      -0.00000000 Ry
     internal energy E=F+TS    =    -365.17373398 Ry

     The total energy is F=E-TS. E is the sum of the following terms:
     one-electron contribution =    -195.38761582 Ry
     hartree contribution      =     115.95000608 Ry
     xc contribution           =     -89.40722225 Ry
     ewald contribution        =    -196.28378369 Ry
     Extended Hubbard energy   =      -0.04511830 Ry

     total magnetization       =     0.00 Bohr mag/cell
     absolute magnetization    =     0.00 Bohr mag/cell

     convergence has been achieved in  14 iterations

     Forces acting on atoms (cartesian axes, Ry/au):

     atom    1 type  1   force =     0.00000000   -0.00000000   -0.00000000
     atom    2 type  2   force =     0.00000000    0.00000000    0.00000000
     The non-local contrib.  to forces
     atom    1 type  1   force =     0.00000000    0.00000000    0.00000000
     atom    2 type  2   force =    -0.00000000    0.00000000   -0.00000000
     The ionic contribution  to forces
     atom    1 type  1   force =    -0.00000000    0.00000000    0.00000000
     atom    2 type  2   force =    -0.00000000   -0.00000000   -0.00000000
     The local contribution  to forces
     atom    1 type  1   force =    -0.00000000   -0.00000000    0.00000000
     atom    2 type  2   force =    -0.00000000   -0.00000000   -0.00000000
     The core correction contribution to forces
     atom    1 type  1   force =     0.00000000   -0.00000000    0.00000000
     atom    2 type  2   force =     0.00000000    0.00000000    0.00000000
     The Hubbard contrib.    to forces
     atom    1 type  1   force =     0.00000000   -0.00000000    0.00000000
     atom    2 type  2   force =    -0.00000000    0.00000000    0.00000000
     The SCF correction term to forces
     atom    1 type  1   force =     0.00000000    0.00000000    0.00000000
     atom    2 type  2   force =    -0.00000000    0.00000000   -0.00000000

     Total force =     0.000000     Total SCF correction =     0.000000


     Computing stress (Cartesian axis) and pressure

          total   stress  (Ry/bohr**3)                   (kbar)     P=        0.26
   0.00000180   0.00000000   0.00000000            0.26        0.00        0.00
   0.00000000   0.00000180  -0.00000000            0.00        0.26       -0.00
   0.00000000  -0.00000000   0.00000180            0.00       -0.00        0.26

     kinetic stress (kbar)  86591.72     -0.00     -0.00
                               -0.00  86591.72     -0.00
                               -0.00     -0.00  86591.72

     local   stress (kbar)  -1015.19      0.00      0.00
                                0.00  -1015.19      0.00
                                0.00      0.00  -1015.19

     nonloc. stress (kbar) -63282.38     -0.00     -0.00
                               -0.00 -63282.38      0.00
                               -0.00      0.00 -63282.38

     hartree stress (kbar)  18070.92     -0.00      0.00
                               -0.00  18070.92     -0.00
                                0.00     -0.00  18070.92

     exc-cor stress (kbar)  13650.68      0.00     -0.00
                                0.00  13650.68      0.00
                               -0.00      0.00  13650.68

     corecor stress (kbar) -23427.27      0.00      0.00
                                0.00 -23427.27      0.00
                                0.00      0.00 -23427.27

     ewald   stress (kbar) -30591.02     -0.00     -0.00
                               -0.00 -30591.02      0.00
                               -0.00      0.00 -30591.02

     hubbard stress (kbar)      2.82      0.00      0.00
                                0.00      2.82      0.00
                                0.00      0.00      2.82

     DFT-D   stress (kbar)      0.00      0.00      0.00
                                0.00      0.00      0.00
                                0.00      0.00      0.00

     XDM     stress (kbar)      0.00      0.00      0.00
                                0.00      0.00      0.00
                                0.00      0.00      0.00

     dft-nl  stress (kbar)      0.00      0.00      0.00
                                0.00      0.00      0.00
                                0.00      0.00      0.00

     TS-vdW  stress (kbar)      0.00      0.00      0.00
                                0.00      0.00      0.00
                                0.00      0.00      0.00

     MDB     stress (kbar)      0.00      0.00      0.00
                                0.00      0.00      0.00
                                0.00      0.00      0.00

     3D-RISM stress (kbar)      0.00      0.00      0.00
                                0.00      0.00      0.00
                                0.00      0.00      0.00


     Writing all to output data dir ./temp/GaAs.save/ :
     XML data file, charge density, pseudopotentials, collected wavefunctions
 
     init_run     :      0.93s CPU      1.18s WALL (       2 calls)
     electrons    :     51.26s CPU     52.48s WALL (       6 calls)
     update_pot   :      0.04s CPU      0.04s WALL (       3 calls)
     forces       :      0.86s CPU      0.87s WALL (       6 calls)
     stress       :      2.38s CPU      2.40s WALL (       6 calls)

     Called by init_run:
     wfcinit      :      0.28s CPU      0.41s WALL (       2 calls)
     wfcinit:wfcr :      0.24s CPU      0.24s WALL (      30 calls)
     potinit      :      0.53s CPU      0.62s WALL (       3 calls)
     hinit0       :      0.08s CPU      0.09s WALL (       2 calls)

     Called by electrons:
     c_bands      :     35.15s CPU     35.66s WALL (      75 calls)
     sum_band     :     14.47s CPU     14.64s WALL (      75 calls)
     v_of_rho     :      0.92s CPU      0.94s WALL (      77 calls)
     v_h          :      0.02s CPU      0.02s WALL (      77 calls)
     v_xc         :      1.03s CPU      1.06s WALL (      89 calls)
     mix_rho      :      0.20s CPU      0.22s WALL (      75 calls)

     Called by c_bands:
     init_us_2    :      0.37s CPU      0.38s WALL (    2715 calls)
     init_us_2:cp :      0.36s CPU      0.37s WALL (    2715 calls)
     cegterg      :     27.13s CPU     27.57s WALL (    1125 calls)

     Called by sum_band:
     sum_band:wei :      0.03s CPU      0.03s WALL (      75 calls)
     sum_band:loo :      3.75s CPU      3.84s WALL (      75 calls)
     sum_band:buf :      0.03s CPU      0.03s WALL (    1125 calls)
     sum_band:ini :      0.15s CPU      0.16s WALL (    1125 calls)

     Called by *egterg:
     cdiaghg      :      2.44s CPU      2.47s WALL (    4687 calls)
     cegterg:over :      1.09s CPU      1.10s WALL (    3682 calls)
     cegterg:upda :      0.55s CPU      0.56s WALL (    3682 calls)
     cegterg:last :      0.86s CPU      0.86s WALL (    2513 calls)
     h_psi        :     21.85s CPU     22.23s WALL (    4837 calls)
     g_psi        :      0.11s CPU      0.11s WALL (    3682 calls)

     Called by h_psi:
     h_psi:calbec :      0.61s CPU      0.61s WALL (    4837 calls)
     vloc_psi     :     19.40s CPU     19.75s WALL (    4837 calls)
     add_vuspsi   :      0.56s CPU      0.57s WALL (    4837 calls)

     General routines
     calbec       :      1.43s CPU      1.46s WALL (   12674 calls)
     fft          :      0.35s CPU      0.37s WALL (    1720 calls)
     ffts         :      0.04s CPU      0.04s WALL (     150 calls)
     fftw         :     20.94s CPU     21.33s WALL (  184522 calls)
 
     Parallel routines

     Extended Hubbard routines
     new_ns_e0_#1 :     10.05s CPU     10.11s WALL (      75 calls)
     vhpsi_v      :      1.19s CPU      1.21s WALL (    4837 calls)
     force_hub_v  :      0.67s CPU      0.68s WALL (       6 calls)
     stres_hub_v  :      1.49s CPU      1.50s WALL (       6 calls)
 
     PWSCF        :     58.05s CPU   1m 0.83s WALL

 
   This run was terminated on:   8:19:41   5Jan2024            

=------------------------------------------------------------------------------=
   JOB DONE.
=------------------------------------------------------------------------------=
