
     Program PWSCF v.7.3 starts on  5Jan2024 at  8:35:11 

     This program is part of the open-source Quantum ESPRESSO suite
     for quantum simulation of materials; please cite
         "P. Giannozzi et al., J. Phys.:Condens. Matter 21 395502 (2009);
         "P. Giannozzi et al., J. Phys.:Condens. Matter 29 465901 (2017);
         "P. Giannozzi et al., J. Chem. Phys. 152 154105 (2020);
          URL http://www.quantum-espresso.org", 
     in publications or presentations arising from this work. More details at
     http://www.quantum-espresso.org/quote

     Parallel version (MPI), running on   128 processors

     MPI processes distributed on     2 nodes
     482099 MiB available memory on the printing compute node when the environment starts
 
     Reading input from GaAs.acbn0.in

     Current dimensions of program PWSCF are:
     Max number of different atomic species (ntypx) = 10
     Max number of k-points (npk) =  40000
     Max angular momentum in pseudopotentials (lmaxx) =  4
     -----------------------------------------------------------
     List of the nearest neighbors for inter-site interactions V
     -----------------------------------------------------------
     atom 1:  1,  atom 2:  1,    -1     0     0
     atom 1:  1,  atom 2:  2,    -1     0     0
     atom 1:  2,  atom 2:  2,    -1     0     0
     atom 1:  1,  atom 2:  1,    -1     0     1
     atom 1:  2,  atom 2:  2,    -1     0     1
     atom 1:  1,  atom 2:  1,    -1     1     0
     atom 1:  2,  atom 2:  2,    -1     1     0
     atom 1:  1,  atom 2:  1,     0    -1     0
     atom 1:  1,  atom 2:  2,     0    -1     0
     atom 1:  2,  atom 2:  2,     0    -1     0
     atom 1:  1,  atom 2:  1,     0    -1     1
     atom 1:  2,  atom 2:  2,     0    -1     1
     atom 1:  1,  atom 2:  1,     0     0    -1
     atom 1:  1,  atom 2:  2,     0     0    -1
     atom 1:  2,  atom 2:  2,     0     0    -1
     atom 1:  1,  atom 2:  2,     0     0     0
     atom 1:  2,  atom 2:  1,     0     0     0
     atom 1:  1,  atom 2:  1,     0     0     1
     atom 1:  2,  atom 2:  1,     0     0     1
     atom 1:  2,  atom 2:  2,     0     0     1
     atom 1:  1,  atom 2:  1,     0     1    -1
     atom 1:  2,  atom 2:  2,     0     1    -1
     atom 1:  1,  atom 2:  1,     0     1     0
     atom 1:  2,  atom 2:  1,     0     1     0
     atom 1:  2,  atom 2:  2,     0     1     0
     atom 1:  1,  atom 2:  1,     1    -1     0
     atom 1:  2,  atom 2:  2,     1    -1     0
     atom 1:  1,  atom 2:  1,     1     0    -1
     atom 1:  2,  atom 2:  2,     1     0    -1
     atom 1:  1,  atom 2:  1,     1     0     0
     atom 1:  2,  atom 2:  1,     1     0     0
     atom 1:  2,  atom 2:  2,     1     0     0
 
 
     K-points division:     npool     =      16
     R & G space division:  proc/nbgrp/npool/nimage =       8
     Subspace diagonalization in iterative solution of the eigenvalue problem:
     a serial algorithm will be used

 
     Parallelization info
     --------------------
     sticks:   dense  smooth     PW     G-vecs:    dense   smooth      PW
     Min         690     690    188                33883    33883    4802
     Max         691     691    189                33886    33886    4803
     Sum        5527    5527   1507               271075   271075   38421
 
     Using Slab Decomposition
 


     bravais-lattice index     =            2
     lattice parameter (alat)  =      10.6997  a.u.
     unit-cell volume          =     306.2356 (a.u.)^3
     number of atoms/cell      =            2
     number of atomic types    =            2
     number of electrons       =        28.00
     number of Kohn-Sham states=           36
     kinetic-energy cutoff     =     350.0000  Ry
     charge density cutoff     =    1400.0000  Ry
     scf convergence threshold =      1.0E-15
     mixing beta               =       0.7000
     number of iterations used =            8  plain     mixing
     Exchange-correlation= PBESOL
                           (   1   4  10   8   0   0   0)
     Non magnetic calculation with spin-orbit


     celldm(1)=  10.699707  celldm(2)=   0.000000  celldm(3)=   0.000000
     celldm(4)=   0.000000  celldm(5)=   0.000000  celldm(6)=   0.000000

     crystal axes: (cart. coord. in units of alat)
               a(1) = (  -0.500000   0.000000   0.500000 )  
               a(2) = (   0.000000   0.500000   0.500000 )  
               a(3) = (  -0.500000   0.500000   0.000000 )  

     reciprocal axes: (cart. coord. in units 2 pi/alat)
               b(1) = ( -1.000000 -1.000000  1.000000 )  
               b(2) = (  1.000000  1.000000  1.000000 )  
               b(3) = ( -1.000000  1.000000 -1.000000 )  


     PseudoPot. # 1 for Ga read from file:
     //scratch/yspacefirst/pseudo/pseudodojo/standard/PBEsol/nc-fr/Ga.upf
     MD5 check sum: f7000130f26fd1c2eca12c6e6a0ddf48
     Pseudo is Norm-conserving + core correction, Zval = 13.0
     Generated using ONCVPSP code by D. R. Hamann
     Using radial grid of 1902 points, 10 beta functions with: 
                l(1) =   0
                l(2) =   0
                l(3) =   1
                l(4) =   1
                l(5) =   1
                l(6) =   1
                l(7) =   2
                l(8) =   2
                l(9) =   2
               l(10) =   2

     PseudoPot. # 2 for As read from file:
     //scratch/yspacefirst/pseudo/pseudodojo/standard/PBEsol/nc-fr/As.upf
     MD5 check sum: d0d055611261f640508515d1f0f7d3bd
     Pseudo is Norm-conserving + core correction, Zval = 15.0
     Generated using ONCVPSP code by D. R. Hamann
     Using radial grid of 1358 points, 10 beta functions with: 
                l(1) =   0
                l(2) =   0
                l(3) =   1
                l(4) =   1
                l(5) =   1
                l(6) =   1
                l(7) =   2
                l(8) =   2
                l(9) =   2
               l(10) =   2

     atomic species   valence    mass     pseudopotential
     Ga               13.00    69.72300     Ga( 1.00)
     As               15.00    74.92160     As( 1.00)

     24 Sym. Ops. (no inversion) found


                                    s                        frac. trans.

      isym =  1     identity                                     

 cryst.   s( 1) = (     1          0          0      )
                  (     0          1          0      )
                  (     0          0          1      )

 cart.    s( 1) = (  1.0000000  0.0000000  0.0000000 )
                  (  0.0000000  1.0000000  0.0000000 )
                  (  0.0000000  0.0000000  1.0000000 )


      isym =  2     180 deg rotation - cart. axis [0,0,1]        

 cryst.   s( 2) = (     0          1         -1      )
                  (     1          0         -1      )
                  (     0          0         -1      )

 cart.    s( 2) = ( -1.0000000  0.0000000  0.0000000 )
                  (  0.0000000 -1.0000000  0.0000000 )
                  (  0.0000000  0.0000000  1.0000000 )


      isym =  3     180 deg rotation - cart. axis [0,1,0]        

 cryst.   s( 3) = (    -1          0          0      )
                  (    -1          0          1      )
                  (    -1          1          0      )

 cart.    s( 3) = ( -1.0000000  0.0000000  0.0000000 )
                  (  0.0000000  1.0000000  0.0000000 )
                  (  0.0000000  0.0000000 -1.0000000 )


      isym =  4     180 deg rotation - cart. axis [1,0,0]        

 cryst.   s( 4) = (     0         -1          1      )
                  (     0         -1          0      )
                  (     1         -1          0      )

 cart.    s( 4) = (  1.0000000  0.0000000  0.0000000 )
                  (  0.0000000 -1.0000000  0.0000000 )
                  (  0.0000000  0.0000000 -1.0000000 )


      isym =  5     120 deg rotation - cart. axis [-1,-1,-1]     

 cryst.   s( 5) = (    -1          0          1      )
                  (    -1          1          0      )
                  (    -1          0          0      )

 cart.    s( 5) = (  0.0000000  1.0000000  0.0000000 )
                  (  0.0000000  0.0000000  1.0000000 )
                  (  1.0000000  0.0000000  0.0000000 )


      isym =  6     120 deg rotation - cart. axis [-1,1,1]       

 cryst.   s( 6) = (     0          1          0      )
                  (     0          0          1      )
                  (     1          0          0      )

 cart.    s( 6) = (  0.0000000 -1.0000000  0.0000000 )
                  (  0.0000000  0.0000000  1.0000000 )
                  ( -1.0000000  0.0000000  0.0000000 )


      isym =  7     120 deg rotation - cart. axis [1,1,-1]       

 cryst.   s( 7) = (     1          0         -1      )
                  (     0          0         -1      )
                  (     0          1         -1      )

 cart.    s( 7) = (  0.0000000  1.0000000  0.0000000 )
                  (  0.0000000  0.0000000 -1.0000000 )
                  ( -1.0000000  0.0000000  0.0000000 )


      isym =  8     120 deg rotation - cart. axis [1,-1,1]       

 cryst.   s( 8) = (     0         -1          0      )
                  (     1         -1          0      )
                  (     0         -1          1      )

 cart.    s( 8) = (  0.0000000 -1.0000000  0.0000000 )
                  (  0.0000000  0.0000000 -1.0000000 )
                  (  1.0000000  0.0000000  0.0000000 )


      isym =  9     120 deg rotation - cart. axis [1,1,1]        

 cryst.   s( 9) = (     0          0         -1      )
                  (     0          1         -1      )
                  (     1          0         -1      )

 cart.    s( 9) = (  0.0000000  0.0000000  1.0000000 )
                  (  1.0000000  0.0000000  0.0000000 )
                  (  0.0000000  1.0000000  0.0000000 )


      isym = 10     120 deg rotation - cart. axis [-1,1,-1]      

 cryst.   s(10) = (    -1          1          0      )
                  (    -1          0          0      )
                  (    -1          0          1      )

 cart.    s(10) = (  0.0000000  0.0000000  1.0000000 )
                  ( -1.0000000  0.0000000  0.0000000 )
                  (  0.0000000 -1.0000000  0.0000000 )


      isym = 11     120 deg rotation - cart. axis [1,-1,-1]      

 cryst.   s(11) = (     0          0          1      )
                  (     1          0          0      )
                  (     0          1          0      )

 cart.    s(11) = (  0.0000000  0.0000000 -1.0000000 )
                  ( -1.0000000  0.0000000  0.0000000 )
                  (  0.0000000  1.0000000  0.0000000 )


      isym = 12     120 deg rotation - cart. axis [-1,-1,1]      

 cryst.   s(12) = (     1         -1          0      )
                  (     0         -1          1      )
                  (     0         -1          0      )

 cart.    s(12) = (  0.0000000  0.0000000 -1.0000000 )
                  (  1.0000000  0.0000000  0.0000000 )
                  (  0.0000000 -1.0000000  0.0000000 )


      isym = 13     inv. 180 deg rotation - cart. axis [1,1,0]   

 cryst.   s(13) = (     0          1          0      )
                  (     1          0          0      )
                  (     0          0          1      )

 cart.    s(13) = (  0.0000000 -1.0000000  0.0000000 )
                  ( -1.0000000  0.0000000  0.0000000 )
                  (  0.0000000  0.0000000  1.0000000 )


      isym = 14     inv. 180 deg rotation - cart. axis [1,-1,0]  

 cryst.   s(14) = (     1          0         -1      )
                  (     0          1         -1      )
                  (     0          0         -1      )

 cart.    s(14) = (  0.0000000  1.0000000  0.0000000 )
                  (  1.0000000  0.0000000  0.0000000 )
                  (  0.0000000  0.0000000  1.0000000 )


      isym = 15     inv.  90 deg rotation - cart. axis [0,0,-1]  

 cryst.   s(15) = (     0         -1          0      )
                  (     0         -1          1      )
                  (     1         -1          0      )

 cart.    s(15) = (  0.0000000 -1.0000000  0.0000000 )
                  (  1.0000000  0.0000000  0.0000000 )
                  (  0.0000000  0.0000000 -1.0000000 )


      isym = 16     inv.  90 deg rotation - cart. axis [0,0,1]   

 cryst.   s(16) = (    -1          0          1      )
                  (    -1          0          0      )
                  (    -1          1          0      )

 cart.    s(16) = (  0.0000000  1.0000000  0.0000000 )
                  ( -1.0000000  0.0000000  0.0000000 )
                  (  0.0000000  0.0000000 -1.0000000 )


      isym = 17     inv. 180 deg rotation - cart. axis [1,0,1]   

 cryst.   s(17) = (     1          0          0      )
                  (     0          0          1      )
                  (     0          1          0      )

 cart.    s(17) = (  0.0000000  0.0000000 -1.0000000 )
                  (  0.0000000  1.0000000  0.0000000 )
                  ( -1.0000000  0.0000000  0.0000000 )


      isym = 18     inv. 180 deg rotation - cart. axis [-1,0,1]  

 cryst.   s(18) = (    -1          0          0      )
                  (    -1          1          0      )
                  (    -1          0          1      )

 cart.    s(18) = (  0.0000000  0.0000000  1.0000000 )
                  (  0.0000000  1.0000000  0.0000000 )
                  (  1.0000000  0.0000000  0.0000000 )


      isym = 19     inv.  90 deg rotation - cart. axis [0,1,0]   

 cryst.   s(19) = (     0         -1          1      )
                  (     1         -1          0      )
                  (     0         -1          0      )

 cart.    s(19) = (  0.0000000  0.0000000 -1.0000000 )
                  (  0.0000000 -1.0000000  0.0000000 )
                  (  1.0000000  0.0000000  0.0000000 )


      isym = 20     inv.  90 deg rotation - cart. axis [0,-1,0]  

 cryst.   s(20) = (     0          1         -1      )
                  (     0          0         -1      )
                  (     1          0         -1      )

 cart.    s(20) = (  0.0000000  0.0000000  1.0000000 )
                  (  0.0000000 -1.0000000  0.0000000 )
                  ( -1.0000000  0.0000000  0.0000000 )


      isym = 21     inv. 180 deg rotation - cart. axis [0,1,1]   

 cryst.   s(21) = (     1         -1          0      )
                  (     0         -1          0      )
                  (     0         -1          1      )

 cart.    s(21) = (  1.0000000  0.0000000  0.0000000 )
                  (  0.0000000  0.0000000 -1.0000000 )
                  (  0.0000000 -1.0000000  0.0000000 )


      isym = 22     inv. 180 deg rotation - cart. axis [0,1,-1]  

 cryst.   s(22) = (     0          0          1      )
                  (     0          1          0      )
                  (     1          0          0      )

 cart.    s(22) = (  1.0000000  0.0000000  0.0000000 )
                  (  0.0000000  0.0000000  1.0000000 )
                  (  0.0000000  1.0000000  0.0000000 )


      isym = 23     inv.  90 deg rotation - cart. axis [-1,0,0]  

 cryst.   s(23) = (     0          0         -1      )
                  (     1          0         -1      )
                  (     0          1         -1      )

 cart.    s(23) = ( -1.0000000  0.0000000  0.0000000 )
                  (  0.0000000  0.0000000 -1.0000000 )
                  (  0.0000000  1.0000000  0.0000000 )


      isym = 24     inv.  90 deg rotation - cart. axis [1,0,0]   

 cryst.   s(24) = (    -1          1          0      )
                  (    -1          0          1      )
                  (    -1          0          0      )

 cart.    s(24) = ( -1.0000000  0.0000000  0.0000000 )
                  (  0.0000000  0.0000000  1.0000000 )
                  (  0.0000000 -1.0000000  0.0000000 )


     double point group T_d (-43m) 
     there are  8 classes and  3 irreducible representations
     the character table:

       E     -E    8C3   -8C3   3C2  6S4   -6S4  6s_d 
                               -3C2              -6s_d
G_6    2.00 -2.00  1.00 -1.00  0.00  1.41 -1.41  0.00
G_7    2.00 -2.00  1.00 -1.00  0.00 -1.41  1.41  0.00
G_8    4.00 -4.00 -1.00  1.00  0.00  0.00  0.00  0.00

     the symmetry operations in each class and the name of the first element:

     E             1
          identity                                               
     -E           -1
          identity E                                             
     8C3           5    7    8    6   12    9   10   11
          120 deg rotation - cart. axis [-1,-1,-1]               
     -8C3         -5   -7   -8   -6  -12   -9  -10  -11
          120 deg rotation - cart. axis [-1,-1,-1] E             
      3C2 -3C2     2   -2    3   -3    4   -4
          180 deg rotation - cart. axis [0,0,1]                  
     6S4          15   16   20   19   23   24
          inv.  90 deg rotation - cart. axis [0,0,-1]            
     -6S4        -15  -16  -20  -19  -23  -24
          inv.  90 deg rotation - cart. axis [0,0,-1] E          
     6s_d -6s_d   13  -13  -14   14   17  -17  -18   18   21  -21   22  -22
          inv. 180 deg rotation - cart. axis [1,1,0]             

   Cartesian axes

     site n.     atom                  positions (alat units)
         1        Ga     tau(   1) = (   0.0000000   0.0000000   0.0000000  )
         2        As     tau(   2) = (  -0.2500000   0.2500000   0.2500000  )

   Crystallographic axes

     site n.     atom                  positions (cryst. coord.)
         1        Ga     tau(   1) = (  0.0000000  0.0000000  0.0000000  )
         2        As     tau(   2) = (  0.2500000  0.2500000  0.2500000  )

     number of k points=   120  Gaussian smearing, width (Ry)=  0.0100
                       cart. coord. in units 2pi/alat
        k(    1) = (   0.0000000   0.0000000   0.0000000), wk =   0.0002963
        k(    2) = (  -0.0666667   0.0666667  -0.0666667), wk =   0.0023704
        k(    3) = (  -0.1333333   0.1333333  -0.1333333), wk =   0.0023704
        k(    4) = (  -0.2000000   0.2000000  -0.2000000), wk =   0.0023704
        k(    5) = (  -0.2666667   0.2666667  -0.2666667), wk =   0.0023704
        k(    6) = (  -0.3333333   0.3333333  -0.3333333), wk =   0.0023704
        k(    7) = (  -0.4000000   0.4000000  -0.4000000), wk =   0.0023704
        k(    8) = (  -0.4666667   0.4666667  -0.4666667), wk =   0.0023704
        k(    9) = (   0.0000000   0.1333333   0.0000000), wk =   0.0017778
        k(   10) = (  -0.0666667   0.2000000  -0.0666667), wk =   0.0071111
        k(   11) = (  -0.1333333   0.2666667  -0.1333333), wk =   0.0071111
        k(   12) = (  -0.2000000   0.3333333  -0.2000000), wk =   0.0071111
        k(   13) = (  -0.2666667   0.4000000  -0.2666667), wk =   0.0071111
        k(   14) = (  -0.3333333   0.4666667  -0.3333333), wk =   0.0071111
        k(   15) = (  -0.4000000   0.5333333  -0.4000000), wk =   0.0071111
        k(   16) = (   0.5333333  -0.4000000   0.5333333), wk =   0.0071111
        k(   17) = (   0.4666667  -0.3333333   0.4666667), wk =   0.0071111
        k(   18) = (   0.4000000  -0.2666667   0.4000000), wk =   0.0071111
        k(   19) = (   0.3333333  -0.2000000   0.3333333), wk =   0.0071111
        k(   20) = (   0.2666667  -0.1333333   0.2666667), wk =   0.0071111
        k(   21) = (   0.2000000  -0.0666667   0.2000000), wk =   0.0071111
        k(   22) = (   0.1333333   0.0000000   0.1333333), wk =   0.0035556
        k(   23) = (   0.0000000   0.2666667   0.0000000), wk =   0.0017778
        k(   24) = (  -0.0666667   0.3333333  -0.0666667), wk =   0.0071111
        k(   25) = (  -0.1333333   0.4000000  -0.1333333), wk =   0.0071111
        k(   26) = (  -0.2000000   0.4666667  -0.2000000), wk =   0.0071111
        k(   27) = (  -0.2666667   0.5333333  -0.2666667), wk =   0.0071111
        k(   28) = (  -0.3333333   0.6000000  -0.3333333), wk =   0.0071111
        k(   29) = (   0.6000000  -0.3333333   0.6000000), wk =   0.0071111
        k(   30) = (   0.5333333  -0.2666667   0.5333333), wk =   0.0071111
        k(   31) = (   0.4666667  -0.2000000   0.4666667), wk =   0.0071111
        k(   32) = (   0.4000000  -0.1333333   0.4000000), wk =   0.0071111
        k(   33) = (   0.3333333  -0.0666667   0.3333333), wk =   0.0071111
        k(   34) = (   0.2666667   0.0000000   0.2666667), wk =   0.0035556
        k(   35) = (   0.0000000   0.4000000   0.0000000), wk =   0.0017778
        k(   36) = (  -0.0666667   0.4666667  -0.0666667), wk =   0.0071111
        k(   37) = (  -0.1333333   0.5333333  -0.1333333), wk =   0.0071111
        k(   38) = (  -0.2000000   0.6000000  -0.2000000), wk =   0.0071111
        k(   39) = (  -0.2666667   0.6666667  -0.2666667), wk =   0.0071111
        k(   40) = (   0.6666667  -0.2666667   0.6666667), wk =   0.0071111
        k(   41) = (   0.6000000  -0.2000000   0.6000000), wk =   0.0071111
        k(   42) = (   0.5333333  -0.1333333   0.5333333), wk =   0.0071111
        k(   43) = (   0.4666667  -0.0666667   0.4666667), wk =   0.0071111
        k(   44) = (   0.4000000   0.0000000   0.4000000), wk =   0.0035556
        k(   45) = (   0.0000000   0.5333333   0.0000000), wk =   0.0017778
        k(   46) = (  -0.0666667   0.6000000  -0.0666667), wk =   0.0071111
        k(   47) = (  -0.1333333   0.6666667  -0.1333333), wk =   0.0071111
        k(   48) = (  -0.2000000   0.7333333  -0.2000000), wk =   0.0071111
        k(   49) = (   0.7333333  -0.2000000   0.7333333), wk =   0.0071111
        k(   50) = (   0.6666667  -0.1333333   0.6666667), wk =   0.0071111
        k(   51) = (   0.6000000  -0.0666667   0.6000000), wk =   0.0071111
        k(   52) = (   0.5333333  -0.0000000   0.5333333), wk =   0.0035556
        k(   53) = (   0.0000000   0.6666667   0.0000000), wk =   0.0017778
        k(   54) = (  -0.0666667   0.7333333  -0.0666667), wk =   0.0071111
        k(   55) = (  -0.1333333   0.8000000  -0.1333333), wk =   0.0071111
        k(   56) = (   0.8000000  -0.1333333   0.8000000), wk =   0.0071111
        k(   57) = (   0.7333333  -0.0666667   0.7333333), wk =   0.0071111
        k(   58) = (   0.6666667  -0.0000000   0.6666667), wk =   0.0035556
        k(   59) = (   0.0000000   0.8000000   0.0000000), wk =   0.0017778
        k(   60) = (  -0.0666667   0.8666667  -0.0666667), wk =   0.0071111
        k(   61) = (   0.8666667  -0.0666667   0.8666667), wk =   0.0071111
        k(   62) = (   0.8000000   0.0000000   0.8000000), wk =   0.0035556
        k(   63) = (   0.0000000   0.9333333   0.0000000), wk =   0.0017778
        k(   64) = (   0.9333333   0.0000000   0.9333333), wk =   0.0035556
        k(   65) = (  -0.1333333   0.2666667   0.0000000), wk =   0.0071111
        k(   66) = (  -0.2000000   0.3333333  -0.0666667), wk =   0.0142222
        k(   67) = (  -0.2666667   0.4000000  -0.1333333), wk =   0.0142222
        k(   68) = (  -0.3333333   0.4666667  -0.2000000), wk =   0.0142222
        k(   69) = (  -0.4000000   0.5333333  -0.2666667), wk =   0.0142222
        k(   70) = (   0.5333333  -0.4000000   0.6666667), wk =   0.0142222
        k(   71) = (  -0.1333333   0.4000000   0.0000000), wk =   0.0071111
        k(   72) = (  -0.2000000   0.4666667  -0.0666667), wk =   0.0142222
        k(   73) = (  -0.2666667   0.5333333  -0.1333333), wk =   0.0142222
        k(   74) = (  -0.3333333   0.6000000  -0.2000000), wk =   0.0142222
        k(   75) = (   0.6000000  -0.3333333   0.7333333), wk =   0.0142222
        k(   76) = (   0.5333333  -0.2666667   0.6666667), wk =   0.0142222
        k(   77) = (   0.4666667  -0.2000000   0.6000000), wk =   0.0142222
        k(   78) = (   0.4000000  -0.1333333   0.5333333), wk =   0.0142222
        k(   79) = (   0.3333333  -0.0666667   0.4666667), wk =   0.0142222
        k(   80) = (   0.2666667   0.0000000   0.4000000), wk =   0.0071111
        k(   81) = (  -0.1333333   0.5333333   0.0000000), wk =   0.0071111
        k(   82) = (  -0.2000000   0.6000000  -0.0666667), wk =   0.0142222
        k(   83) = (  -0.2666667   0.6666667  -0.1333333), wk =   0.0142222
        k(   84) = (   0.6666667  -0.2666667   0.8000000), wk =   0.0142222
        k(   85) = (   0.6000000  -0.2000000   0.7333333), wk =   0.0142222
        k(   86) = (   0.5333333  -0.1333333   0.6666667), wk =   0.0142222
        k(   87) = (   0.4666667  -0.0666667   0.6000000), wk =   0.0142222
        k(   88) = (   0.4000000   0.0000000   0.5333333), wk =   0.0071111
        k(   89) = (  -0.1333333   0.6666667  -0.0000000), wk =   0.0071111
        k(   90) = (  -0.2000000   0.7333333  -0.0666667), wk =   0.0142222
        k(   91) = (   0.7333333  -0.2000000   0.8666667), wk =   0.0142222
        k(   92) = (   0.6666667  -0.1333333   0.8000000), wk =   0.0142222
        k(   93) = (   0.6000000  -0.0666667   0.7333333), wk =   0.0142222
        k(   94) = (   0.5333333  -0.0000000   0.6666667), wk =   0.0071111
        k(   95) = (  -0.1333333   0.8000000   0.0000000), wk =   0.0071111
        k(   96) = (   0.8000000  -0.1333333   0.9333333), wk =   0.0142222
        k(   97) = (   0.7333333  -0.0666667   0.8666667), wk =   0.0142222
        k(   98) = (   0.6666667   0.0000000   0.8000000), wk =   0.0071111
        k(   99) = (   0.8666667  -0.0666667   1.0000000), wk =   0.0071111
        k(  100) = (   0.8000000   0.0000000   0.9333333), wk =   0.0071111
        k(  101) = (  -0.2666667   0.5333333   0.0000000), wk =   0.0071111
        k(  102) = (  -0.3333333   0.6000000  -0.0666667), wk =   0.0142222
        k(  103) = (   0.6000000  -0.3333333   0.8666667), wk =   0.0142222
        k(  104) = (   0.5333333  -0.2666667   0.8000000), wk =   0.0142222
        k(  105) = (  -0.2666667   0.6666667   0.0000000), wk =   0.0071111
        k(  106) = (   0.6666667  -0.2666667   0.9333333), wk =   0.0142222
        k(  107) = (   0.6000000  -0.2000000   0.8666667), wk =   0.0142222
        k(  108) = (   0.5333333  -0.1333333   0.8000000), wk =   0.0142222
        k(  109) = (   0.4666667  -0.0666667   0.7333333), wk =   0.0142222
        k(  110) = (   0.4000000   0.0000000   0.6666667), wk =   0.0071111
        k(  111) = (   0.7333333  -0.2000000   1.0000000), wk =   0.0071111
        k(  112) = (   0.6666667  -0.1333333   0.9333333), wk =   0.0142222
        k(  113) = (   0.6000000  -0.0666667   0.8666667), wk =   0.0142222
        k(  114) = (   0.5333333   0.0000000   0.8000000), wk =   0.0071111
        k(  115) = (   0.7333333  -0.0666667   1.0000000), wk =   0.0071111
        k(  116) = (   0.6666667   0.0000000   0.9333333), wk =   0.0071111
        k(  117) = (   0.6000000  -0.2000000   1.0000000), wk =   0.0071111
        k(  118) = (   0.5333333  -0.1333333   0.9333333), wk =   0.0142222
        k(  119) = (   0.6000000  -0.0666667   1.0000000), wk =   0.0071111
        k(  120) = (   0.5333333  -0.0000000   0.9333333), wk =   0.0071111

                       cryst. coord.
        k(    1) = (   0.0000000   0.0000000   0.0000000), wk =   0.0002963
        k(    2) = (   0.0000000   0.0000000   0.0666667), wk =   0.0023704
        k(    3) = (   0.0000000   0.0000000   0.1333333), wk =   0.0023704
        k(    4) = (   0.0000000   0.0000000   0.2000000), wk =   0.0023704
        k(    5) = (   0.0000000   0.0000000   0.2666667), wk =   0.0023704
        k(    6) = (   0.0000000   0.0000000   0.3333333), wk =   0.0023704
        k(    7) = (   0.0000000   0.0000000   0.4000000), wk =   0.0023704
        k(    8) = (   0.0000000   0.0000000   0.4666667), wk =   0.0023704
        k(    9) = (   0.0000000   0.0666667   0.0666667), wk =   0.0017778
        k(   10) = (   0.0000000   0.0666667   0.1333333), wk =   0.0071111
        k(   11) = (   0.0000000   0.0666667   0.2000000), wk =   0.0071111
        k(   12) = (   0.0000000   0.0666667   0.2666667), wk =   0.0071111
        k(   13) = (   0.0000000   0.0666667   0.3333333), wk =   0.0071111
        k(   14) = (   0.0000000   0.0666667   0.4000000), wk =   0.0071111
        k(   15) = (   0.0000000   0.0666667   0.4666667), wk =   0.0071111
        k(   16) = (   0.0000000   0.0666667  -0.4666667), wk =   0.0071111
        k(   17) = (   0.0000000   0.0666667  -0.4000000), wk =   0.0071111
        k(   18) = (   0.0000000   0.0666667  -0.3333333), wk =   0.0071111
        k(   19) = (   0.0000000   0.0666667  -0.2666667), wk =   0.0071111
        k(   20) = (   0.0000000   0.0666667  -0.2000000), wk =   0.0071111
        k(   21) = (   0.0000000   0.0666667  -0.1333333), wk =   0.0071111
        k(   22) = (   0.0000000   0.0666667  -0.0666667), wk =   0.0035556
        k(   23) = (   0.0000000   0.1333333   0.1333333), wk =   0.0017778
        k(   24) = (   0.0000000   0.1333333   0.2000000), wk =   0.0071111
        k(   25) = (   0.0000000   0.1333333   0.2666667), wk =   0.0071111
        k(   26) = (   0.0000000   0.1333333   0.3333333), wk =   0.0071111
        k(   27) = (   0.0000000   0.1333333   0.4000000), wk =   0.0071111
        k(   28) = (   0.0000000   0.1333333   0.4666667), wk =   0.0071111
        k(   29) = (   0.0000000   0.1333333  -0.4666667), wk =   0.0071111
        k(   30) = (   0.0000000   0.1333333  -0.4000000), wk =   0.0071111
        k(   31) = (   0.0000000   0.1333333  -0.3333333), wk =   0.0071111
        k(   32) = (   0.0000000   0.1333333  -0.2666667), wk =   0.0071111
        k(   33) = (   0.0000000   0.1333333  -0.2000000), wk =   0.0071111
        k(   34) = (   0.0000000   0.1333333  -0.1333333), wk =   0.0035556
        k(   35) = (   0.0000000   0.2000000   0.2000000), wk =   0.0017778
        k(   36) = (   0.0000000   0.2000000   0.2666667), wk =   0.0071111
        k(   37) = (   0.0000000   0.2000000   0.3333333), wk =   0.0071111
        k(   38) = (   0.0000000   0.2000000   0.4000000), wk =   0.0071111
        k(   39) = (   0.0000000   0.2000000   0.4666667), wk =   0.0071111
        k(   40) = (   0.0000000   0.2000000  -0.4666667), wk =   0.0071111
        k(   41) = (   0.0000000   0.2000000  -0.4000000), wk =   0.0071111
        k(   42) = (   0.0000000   0.2000000  -0.3333333), wk =   0.0071111
        k(   43) = (   0.0000000   0.2000000  -0.2666667), wk =   0.0071111
        k(   44) = (   0.0000000   0.2000000  -0.2000000), wk =   0.0035556
        k(   45) = (   0.0000000   0.2666667   0.2666667), wk =   0.0017778
        k(   46) = (   0.0000000   0.2666667   0.3333333), wk =   0.0071111
        k(   47) = (   0.0000000   0.2666667   0.4000000), wk =   0.0071111
        k(   48) = (   0.0000000   0.2666667   0.4666667), wk =   0.0071111
        k(   49) = (   0.0000000   0.2666667  -0.4666667), wk =   0.0071111
        k(   50) = (   0.0000000   0.2666667  -0.4000000), wk =   0.0071111
        k(   51) = (   0.0000000   0.2666667  -0.3333333), wk =   0.0071111
        k(   52) = (   0.0000000   0.2666667  -0.2666667), wk =   0.0035556
        k(   53) = (   0.0000000   0.3333333   0.3333333), wk =   0.0017778
        k(   54) = (   0.0000000   0.3333333   0.4000000), wk =   0.0071111
        k(   55) = (   0.0000000   0.3333333   0.4666667), wk =   0.0071111
        k(   56) = (   0.0000000   0.3333333  -0.4666667), wk =   0.0071111
        k(   57) = (   0.0000000   0.3333333  -0.4000000), wk =   0.0071111
        k(   58) = (   0.0000000   0.3333333  -0.3333333), wk =   0.0035556
        k(   59) = (   0.0000000   0.4000000   0.4000000), wk =   0.0017778
        k(   60) = (   0.0000000   0.4000000   0.4666667), wk =   0.0071111
        k(   61) = (   0.0000000   0.4000000  -0.4666667), wk =   0.0071111
        k(   62) = (   0.0000000   0.4000000  -0.4000000), wk =   0.0035556
        k(   63) = (   0.0000000   0.4666667   0.4666667), wk =   0.0017778
        k(   64) = (   0.0000000   0.4666667  -0.4666667), wk =   0.0035556
        k(   65) = (   0.0666667   0.1333333   0.2000000), wk =   0.0071111
        k(   66) = (   0.0666667   0.1333333   0.2666667), wk =   0.0142222
        k(   67) = (   0.0666667   0.1333333   0.3333333), wk =   0.0142222
        k(   68) = (   0.0666667   0.1333333   0.4000000), wk =   0.0142222
        k(   69) = (   0.0666667   0.1333333   0.4666667), wk =   0.0142222
        k(   70) = (   0.0666667   0.1333333  -0.4666667), wk =   0.0142222
        k(   71) = (   0.0666667   0.2000000   0.2666667), wk =   0.0071111
        k(   72) = (   0.0666667   0.2000000   0.3333333), wk =   0.0142222
        k(   73) = (   0.0666667   0.2000000   0.4000000), wk =   0.0142222
        k(   74) = (   0.0666667   0.2000000   0.4666667), wk =   0.0142222
        k(   75) = (   0.0666667   0.2000000  -0.4666667), wk =   0.0142222
        k(   76) = (   0.0666667   0.2000000  -0.4000000), wk =   0.0142222
        k(   77) = (   0.0666667   0.2000000  -0.3333333), wk =   0.0142222
        k(   78) = (   0.0666667   0.2000000  -0.2666667), wk =   0.0142222
        k(   79) = (   0.0666667   0.2000000  -0.2000000), wk =   0.0142222
        k(   80) = (   0.0666667   0.2000000  -0.1333333), wk =   0.0071111
        k(   81) = (   0.0666667   0.2666667   0.3333333), wk =   0.0071111
        k(   82) = (   0.0666667   0.2666667   0.4000000), wk =   0.0142222
        k(   83) = (   0.0666667   0.2666667   0.4666667), wk =   0.0142222
        k(   84) = (   0.0666667   0.2666667  -0.4666667), wk =   0.0142222
        k(   85) = (   0.0666667   0.2666667  -0.4000000), wk =   0.0142222
        k(   86) = (   0.0666667   0.2666667  -0.3333333), wk =   0.0142222
        k(   87) = (   0.0666667   0.2666667  -0.2666667), wk =   0.0142222
        k(   88) = (   0.0666667   0.2666667  -0.2000000), wk =   0.0071111
        k(   89) = (   0.0666667   0.3333333   0.4000000), wk =   0.0071111
        k(   90) = (   0.0666667   0.3333333   0.4666667), wk =   0.0142222
        k(   91) = (   0.0666667   0.3333333  -0.4666667), wk =   0.0142222
        k(   92) = (   0.0666667   0.3333333  -0.4000000), wk =   0.0142222
        k(   93) = (   0.0666667   0.3333333  -0.3333333), wk =   0.0142222
        k(   94) = (   0.0666667   0.3333333  -0.2666667), wk =   0.0071111
        k(   95) = (   0.0666667   0.4000000   0.4666667), wk =   0.0071111
        k(   96) = (   0.0666667   0.4000000  -0.4666667), wk =   0.0142222
        k(   97) = (   0.0666667   0.4000000  -0.4000000), wk =   0.0142222
        k(   98) = (   0.0666667   0.4000000  -0.3333333), wk =   0.0071111
        k(   99) = (   0.0666667   0.4666667  -0.4666667), wk =   0.0071111
        k(  100) = (   0.0666667   0.4666667  -0.4000000), wk =   0.0071111
        k(  101) = (   0.1333333   0.2666667   0.4000000), wk =   0.0071111
        k(  102) = (   0.1333333   0.2666667   0.4666667), wk =   0.0142222
        k(  103) = (   0.1333333   0.2666667  -0.4666667), wk =   0.0142222
        k(  104) = (   0.1333333   0.2666667  -0.4000000), wk =   0.0142222
        k(  105) = (   0.1333333   0.3333333   0.4666667), wk =   0.0071111
        k(  106) = (   0.1333333   0.3333333  -0.4666667), wk =   0.0142222
        k(  107) = (   0.1333333   0.3333333  -0.4000000), wk =   0.0142222
        k(  108) = (   0.1333333   0.3333333  -0.3333333), wk =   0.0142222
        k(  109) = (   0.1333333   0.3333333  -0.2666667), wk =   0.0142222
        k(  110) = (   0.1333333   0.3333333  -0.2000000), wk =   0.0071111
        k(  111) = (   0.1333333   0.4000000  -0.4666667), wk =   0.0071111
        k(  112) = (   0.1333333   0.4000000  -0.4000000), wk =   0.0142222
        k(  113) = (   0.1333333   0.4000000  -0.3333333), wk =   0.0142222
        k(  114) = (   0.1333333   0.4000000  -0.2666667), wk =   0.0071111
        k(  115) = (   0.1333333   0.4666667  -0.4000000), wk =   0.0071111
        k(  116) = (   0.1333333   0.4666667  -0.3333333), wk =   0.0071111
        k(  117) = (   0.2000000   0.4000000  -0.4000000), wk =   0.0071111
        k(  118) = (   0.2000000   0.4000000  -0.3333333), wk =   0.0142222
        k(  119) = (   0.2000000   0.4666667  -0.3333333), wk =   0.0071111
        k(  120) = (   0.2000000   0.4666667  -0.2666667), wk =   0.0071111

     Dense  grid:   271075 G-vectors     FFT dimensions: (  96,  96,  96)

     Dynamical RAM for                 wfc:       4.65 MB

     Dynamical RAM for     wfc (w. buffer):      41.84 MB

     Dynamical RAM for             V proj.:       2.07 MB

     Dynamical RAM for  V proj. (w. buff.):      18.60 MB

     Dynamical RAM for           str. fact:       1.03 MB

     Dynamical RAM for           local pot:       0.00 MB

     Dynamical RAM for          nlocal pot:       4.39 MB

     Dynamical RAM for                qrad:      15.71 MB

     Dynamical RAM for          rho,v,vnew:      16.33 MB

     Dynamical RAM for               rhoin:       5.44 MB

     Dynamical RAM for            rho*nmix:      33.09 MB

     Dynamical RAM for           G-vectors:       2.20 MB

     Dynamical RAM for          h,s,v(r/c):       0.24 MB

     Dynamical RAM for          <psi|beta>:       0.07 MB

     Dynamical RAM for                 psi:       9.30 MB

     Dynamical RAM for                hpsi:       9.30 MB

     Dynamical RAM for      wfcinit/wfcrot:       7.00 MB

     Estimated static dynamical RAM per process >     113.85 MB

     Estimated max dynamical RAM per process >     165.86 MB

     Estimated total dynamical RAM >      16.85 GB

     Initial potential from superposition of free atoms

     starting charge      27.9973, renormalised to      28.0000
 
     =========================
     E(+U+V) =  0.000000000 Ry
     =========================

     Atomic wfcs used for DFT+U+V projectors are orthogonalized

     Starting wfcs are random

     total cpu time spent up to now is        6.1 secs

     Self-consistent Calculation

     iteration #  1     ecut=   350.00 Ry     beta= 0.70
     Davidson diagonalization with overlap

---- Real-time Memory Report at c_bands before calling an iterative solver
           900 MiB given to the printing process from OS
             0 MiB allocation reported by mallinfo(arena+hblkhd)
        434923 MiB available memory on the node where the printing process lives
------------------
     ethr =  1.00E-02,  avg # of iterations = 13.8
                                        
     -----------------------------------
     V[atom i, atom j, #orb(i), #orb(j)]
     -----------------------------------
     [  1,  1,  4,  4  ]
     [  0     0     0  ]
       0.0000   0.0000   0.0000   0.0000
       0.0000   0.2112   0.2112   0.2112
       0.0000   0.2112   0.2112   0.2112
       0.0000   0.2112   0.2112   0.2112
 
     [  1,  2,  4,  4  ]
     [  0     0     0  ]
       0.5506   0.9808   0.9808   0.9808
       0.5214   1.1552   1.1552   1.1552
       0.5214   1.1552   1.1552   1.1552
       0.5214   1.1552   1.1552   1.1552
 
     [  2,  1,  4,  4  ]
     [  0     0     0  ]
       0.5506   0.5214   0.5214   0.5214
       0.9808   1.1552   1.1552   1.1552
       0.9808   1.1552   1.1552   1.1552
       0.9808   1.1552   1.1552   1.1552
 
     [  2,  2,  4,  4  ]
     [  0     0     0  ]
       0.0000   0.0000   0.0000   0.0000
       0.0000   1.4886   1.4886   1.4886
       0.0000   1.4886   1.4886   1.4886
       0.0000   1.4886   1.4886   1.4886
 
     [  1,  1,  4,  4  ]
     [ -1     0     0  ]
       0.1135   0.0421   0.0421   0.0421
       0.0421   0.0857   0.0857   0.0857
       0.0421   0.0857   0.0857   0.0857
       0.0421   0.0857   0.0857   0.0857
 
     [  1,  2,  4,  4  ]
     [ -1     0     0  ]
       0.5506   0.9808   0.9808   0.9808
       0.5214   1.1552   1.1552   1.1552
       0.5214   1.1552   1.1552   1.1552
       0.5214   1.1552   1.1552   1.1552
 
     [  2,  2,  4,  4  ]
     [ -1     0     0  ]
       0.2866   0.1124   0.1124   0.1124
       0.1124   0.4614   0.4614   0.4614
       0.1124   0.4614   0.4614   0.4614
       0.1124   0.4614   0.4614   0.4614
 
     [  1,  1,  4,  4  ]
     [ -1     0     1  ]
       0.1135   0.0421   0.0421   0.0421
       0.0421   0.0857   0.0857   0.0857
       0.0421   0.0857   0.0857   0.0857
       0.0421   0.0857   0.0857   0.0857
 
     [  2,  2,  4,  4  ]
     [ -1     0     1  ]
       0.2866   0.1124   0.1124   0.1124
       0.1124   0.4614   0.4614   0.4614
       0.1124   0.4614   0.4614   0.4614
       0.1124   0.4614   0.4614   0.4614
 
     [  1,  1,  4,  4  ]
     [ -1     1     0  ]
       0.1135   0.0421   0.0421   0.0421
       0.0421   0.0856   0.0856   0.0856
       0.0421   0.0856   0.0856   0.0856
       0.0421   0.0856   0.0856   0.0856
 
     [  2,  2,  4,  4  ]
     [ -1     1     0  ]
       0.2866   0.1124   0.1124   0.1124
       0.1124   0.4613   0.4613   0.4613
       0.1124   0.4613   0.4613   0.4613
       0.1124   0.4613   0.4613   0.4613
 
     [  1,  1,  4,  4  ]
     [  0    -1     0  ]
       0.1135   0.0421   0.0421   0.0421
       0.0421   0.0857   0.0857   0.0857
       0.0421   0.0857   0.0857   0.0857
       0.0421   0.0857   0.0857   0.0857
 
     [  1,  2,  4,  4  ]
     [  0    -1     0  ]
       0.5506   0.9808   0.9808   0.9808
       0.5214   1.1552   1.1552   1.1552
       0.5214   1.1552   1.1552   1.1552
       0.5214   1.1552   1.1552   1.1552
 
     [  2,  2,  4,  4  ]
     [  0    -1     0  ]
       0.2866   0.1124   0.1124   0.1124
       0.1124   0.4614   0.4614   0.4614
       0.1124   0.4614   0.4614   0.4614
       0.1124   0.4614   0.4614   0.4614
 
     [  1,  1,  4,  4  ]
     [  0    -1     1  ]
       0.1135   0.0421   0.0421   0.0421
       0.0421   0.0857   0.0857   0.0857
       0.0421   0.0857   0.0857   0.0857
       0.0421   0.0857   0.0857   0.0857
 
     [  2,  2,  4,  4  ]
     [  0    -1     1  ]
       0.2866   0.1124   0.1124   0.1124
       0.1124   0.4614   0.4614   0.4614
       0.1124   0.4614   0.4614   0.4614
       0.1124   0.4614   0.4614   0.4614
 
     [  1,  1,  4,  4  ]
     [  0     0    -1  ]
       0.1135   0.0421   0.0421   0.0421
       0.0421   0.0856   0.0856   0.0856
       0.0421   0.0856   0.0856   0.0856
       0.0421   0.0856   0.0856   0.0856
 
     [  1,  2,  4,  4  ]
     [  0     0    -1  ]
       0.5506   0.9808   0.9808   0.9808
       0.5214   1.1552   1.1552   1.1552
       0.5214   1.1552   1.1552   1.1552
       0.5214   1.1552   1.1552   1.1552
 
     [  2,  2,  4,  4  ]
     [  0     0    -1  ]
       0.2866   0.1124   0.1124   0.1124
       0.1124   0.4613   0.4613   0.4613
       0.1124   0.4613   0.4613   0.4613
       0.1124   0.4613   0.4613   0.4613
 
     [  1,  1,  4,  4  ]
     [  0     0     1  ]
       0.1135   0.0421   0.0421   0.0421
       0.0421   0.0856   0.0856   0.0856
       0.0421   0.0856   0.0856   0.0856
       0.0421   0.0856   0.0856   0.0856
 
     [  2,  1,  4,  4  ]
     [  0     0     1  ]
       0.5506   0.5214   0.5214   0.5214
       0.9808   1.1552   1.1552   1.1552
       0.9808   1.1552   1.1552   1.1552
       0.9808   1.1552   1.1552   1.1552
 
     [  2,  2,  4,  4  ]
     [  0     0     1  ]
       0.2866   0.1124   0.1124   0.1124
       0.1124   0.4613   0.4613   0.4613
       0.1124   0.4613   0.4613   0.4613
       0.1124   0.4613   0.4613   0.4613
 
     [  1,  1,  4,  4  ]
     [  0     1    -1  ]
       0.1135   0.0421   0.0421   0.0421
       0.0421   0.0857   0.0857   0.0857
       0.0421   0.0857   0.0857   0.0857
       0.0421   0.0857   0.0857   0.0857
 
     [  2,  2,  4,  4  ]
     [  0     1    -1  ]
       0.2866   0.1124   0.1124   0.1124
       0.1124   0.4614   0.4614   0.4614
       0.1124   0.4614   0.4614   0.4614
       0.1124   0.4614   0.4614   0.4614
 
     [  1,  1,  4,  4  ]
     [  0     1     0  ]
       0.1135   0.0421   0.0421   0.0421
       0.0421   0.0857   0.0857   0.0857
       0.0421   0.0857   0.0857   0.0857
       0.0421   0.0857   0.0857   0.0857
 
     [  2,  1,  4,  4  ]
     [  0     1     0  ]
       0.5506   0.5214   0.5214   0.5214
       0.9808   1.1552   1.1552   1.1552
       0.9808   1.1552   1.1552   1.1552
       0.9808   1.1552   1.1552   1.1552
 
     [  2,  2,  4,  4  ]
     [  0     1     0  ]
       0.2866   0.1124   0.1124   0.1124
       0.1124   0.4614   0.4614   0.4614
       0.1124   0.4614   0.4614   0.4614
       0.1124   0.4614   0.4614   0.4614
 
     [  1,  1,  4,  4  ]
     [  1    -1     0  ]
       0.1135   0.0421   0.0421   0.0421
       0.0421   0.0856   0.0856   0.0856
       0.0421   0.0856   0.0856   0.0856
       0.0421   0.0856   0.0856   0.0856
 
     [  2,  2,  4,  4  ]
     [  1    -1     0  ]
       0.2866   0.1124   0.1124   0.1124
       0.1124   0.4613   0.4613   0.4613
       0.1124   0.4613   0.4613   0.4613
       0.1124   0.4613   0.4613   0.4613
 
     [  1,  1,  4,  4  ]
     [  1     0    -1  ]
       0.1135   0.0421   0.0421   0.0421
       0.0421   0.0857   0.0857   0.0857
       0.0421   0.0857   0.0857   0.0857
       0.0421   0.0857   0.0857   0.0857
 
     [  2,  2,  4,  4  ]
     [  1     0    -1  ]
       0.2866   0.1124   0.1124   0.1124
       0.1124   0.4614   0.4614   0.4614
       0.1124   0.4614   0.4614   0.4614
       0.1124   0.4614   0.4614   0.4614
 
     [  1,  1,  4,  4  ]
     [  1     0     0  ]
       0.1135   0.0421   0.0421   0.0421
       0.0421   0.0857   0.0857   0.0857
       0.0421   0.0857   0.0857   0.0857
       0.0421   0.0857   0.0857   0.0857
 
     [  2,  1,  4,  4  ]
     [  1     0     0  ]
       0.5506   0.5214   0.5214   0.5214
       0.9808   1.1552   1.1552   1.1552
       0.9808   1.1552   1.1552   1.1552
       0.9808   1.1552   1.1552   1.1552
 
     [  2,  2,  4,  4  ]
     [  1     0     0  ]
       0.2866   0.1124   0.1124   0.1124
       0.1124   0.4614   0.4614   0.4614
       0.1124   0.4614   0.4614   0.4614
       0.1124   0.4614   0.4614   0.4614
 

     Threshold (ethr) on eigenvalues was too large:
     Diagonalizing with lowered threshold

     Davidson diagonalization with overlap

---- Real-time Memory Report at c_bands before calling an iterative solver
           996 MiB given to the printing process from OS
             0 MiB allocation reported by mallinfo(arena+hblkhd)
        434295 MiB available memory on the node where the printing process lives
------------------
     ethr =  7.25E-04,  avg # of iterations =  3.5
                                        
     -----------------------------------
     V[atom i, atom j, #orb(i), #orb(j)]
     -----------------------------------
     [  1,  1,  4,  4  ]
     [  0     0     0  ]
       0.0000   0.0000   0.0000   0.0000
       0.0000   0.2741   0.2741   0.2741
       0.0000   0.2741   0.2741   0.2741
       0.0000   0.2741   0.2741   0.2741
 
     [  1,  2,  4,  4  ]
     [  0     0     0  ]
       0.7163   1.2753   1.2753   1.2753
       0.6782   1.5013   1.5013   1.5013
       0.6782   1.5013   1.5013   1.5013
       0.6782   1.5013   1.5013   1.5013
 
     [  2,  1,  4,  4  ]
     [  0     0     0  ]
       0.7163   0.6782   0.6782   0.6782
       1.2753   1.5013   1.5013   1.5013
       1.2753   1.5013   1.5013   1.5013
       1.2753   1.5013   1.5013   1.5013
 
     [  2,  2,  4,  4  ]
     [  0     0     0  ]
       0.0000   0.0000   0.0000   0.0000
       0.0000   1.9367   1.9367   1.9367
       0.0000   1.9367   1.9367   1.9367
       0.0000   1.9367   1.9367   1.9367
 
     [  1,  1,  4,  4  ]
     [ -1     0     0  ]
       0.1476   0.0547   0.0547   0.0547
       0.0547   0.1112   0.1112   0.1112
       0.0547   0.1112   0.1112   0.1112
       0.0547   0.1112   0.1112   0.1112
 
     [  1,  2,  4,  4  ]
     [ -1     0     0  ]
       0.7163   1.2753   1.2753   1.2753
       0.6782   1.5013   1.5013   1.5013
       0.6782   1.5013   1.5013   1.5013
       0.6782   1.5013   1.5013   1.5013
 
     [  2,  2,  4,  4  ]
     [ -1     0     0  ]
       0.3731   0.1463   0.1463   0.1463
       0.1463   0.6003   0.6003   0.6003
       0.1463   0.6003   0.6003   0.6003
       0.1463   0.6003   0.6003   0.6003
 
     [  1,  1,  4,  4  ]
     [ -1     0     1  ]
       0.1476   0.0547   0.0547   0.0547
       0.0547   0.1112   0.1112   0.1112
       0.0547   0.1112   0.1112   0.1112
       0.0547   0.1112   0.1112   0.1112
 
     [  2,  2,  4,  4  ]
     [ -1     0     1  ]
       0.3731   0.1463   0.1463   0.1463
       0.1463   0.6003   0.6003   0.6003
       0.1463   0.6003   0.6003   0.6003
       0.1463   0.6003   0.6003   0.6003
 
     [  1,  1,  4,  4  ]
     [ -1     1     0  ]
       0.1476   0.0547   0.0547   0.0547
       0.0547   0.1112   0.1112   0.1112
       0.0547   0.1112   0.1112   0.1112
       0.0547   0.1112   0.1112   0.1112
 
     [  2,  2,  4,  4  ]
     [ -1     1     0  ]
       0.3731   0.1463   0.1463   0.1463
       0.1463   0.6002   0.6002   0.6002
       0.1463   0.6002   0.6002   0.6002
       0.1463   0.6002   0.6002   0.6002
 
     [  1,  1,  4,  4  ]
     [  0    -1     0  ]
       0.1476   0.0547   0.0547   0.0547
       0.0547   0.1112   0.1112   0.1112
       0.0547   0.1112   0.1112   0.1112
       0.0547   0.1112   0.1112   0.1112
 
     [  1,  2,  4,  4  ]
     [  0    -1     0  ]
       0.7163   1.2753   1.2753   1.2753
       0.6782   1.5013   1.5013   1.5013
       0.6782   1.5013   1.5013   1.5013
       0.6782   1.5013   1.5013   1.5013
 
     [  2,  2,  4,  4  ]
     [  0    -1     0  ]
       0.3731   0.1463   0.1463   0.1463
       0.1463   0.6003   0.6003   0.6003
       0.1463   0.6003   0.6003   0.6003
       0.1463   0.6003   0.6003   0.6003
 
     [  1,  1,  4,  4  ]
     [  0    -1     1  ]
       0.1476   0.0547   0.0547   0.0547
       0.0547   0.1112   0.1112   0.1112
       0.0547   0.1112   0.1112   0.1112
       0.0547   0.1112   0.1112   0.1112
 
     [  2,  2,  4,  4  ]
     [  0    -1     1  ]
       0.3731   0.1463   0.1463   0.1463
       0.1463   0.6003   0.6003   0.6003
       0.1463   0.6003   0.6003   0.6003
       0.1463   0.6003   0.6003   0.6003
 
     [  1,  1,  4,  4  ]
     [  0     0    -1  ]
       0.1476   0.0547   0.0547   0.0547
       0.0547   0.1112   0.1112   0.1112
       0.0547   0.1112   0.1112   0.1112
       0.0547   0.1112   0.1112   0.1112
 
     [  1,  2,  4,  4  ]
     [  0     0    -1  ]
       0.7163   1.2753   1.2753   1.2753
       0.6782   1.5013   1.5013   1.5013
       0.6782   1.5013   1.5013   1.5013
       0.6782   1.5013   1.5013   1.5013
 
     [  2,  2,  4,  4  ]
     [  0     0    -1  ]
       0.3731   0.1463   0.1463   0.1463
       0.1463   0.6002   0.6002   0.6002
       0.1463   0.6002   0.6002   0.6002
       0.1463   0.6002   0.6002   0.6002
 
     [  1,  1,  4,  4  ]
     [  0     0     1  ]
       0.1476   0.0547   0.0547   0.0547
       0.0547   0.1112   0.1112   0.1112
       0.0547   0.1112   0.1112   0.1112
       0.0547   0.1112   0.1112   0.1112
 
     [  2,  1,  4,  4  ]
     [  0     0     1  ]
       0.7163   0.6782   0.6782   0.6782
       1.2753   1.5013   1.5013   1.5013
       1.2753   1.5013   1.5013   1.5013
       1.2753   1.5013   1.5013   1.5013
 
     [  2,  2,  4,  4  ]
     [  0     0     1  ]
       0.3731   0.1463   0.1463   0.1463
       0.1463   0.6002   0.6002   0.6002
       0.1463   0.6002   0.6002   0.6002
       0.1463   0.6002   0.6002   0.6002
 
     [  1,  1,  4,  4  ]
     [  0     1    -1  ]
       0.1476   0.0547   0.0547   0.0547
       0.0547   0.1112   0.1112   0.1112
       0.0547   0.1112   0.1112   0.1112
       0.0547   0.1112   0.1112   0.1112
 
     [  2,  2,  4,  4  ]
     [  0     1    -1  ]
       0.3731   0.1463   0.1463   0.1463
       0.1463   0.6003   0.6003   0.6003
       0.1463   0.6003   0.6003   0.6003
       0.1463   0.6003   0.6003   0.6003
 
     [  1,  1,  4,  4  ]
     [  0     1     0  ]
       0.1476   0.0547   0.0547   0.0547
       0.0547   0.1112   0.1112   0.1112
       0.0547   0.1112   0.1112   0.1112
       0.0547   0.1112   0.1112   0.1112
 
     [  2,  1,  4,  4  ]
     [  0     1     0  ]
       0.7163   0.6782   0.6782   0.6782
       1.2753   1.5013   1.5013   1.5013
       1.2753   1.5013   1.5013   1.5013
       1.2753   1.5013   1.5013   1.5013
 
     [  2,  2,  4,  4  ]
     [  0     1     0  ]
       0.3731   0.1463   0.1463   0.1463
       0.1463   0.6003   0.6003   0.6003
       0.1463   0.6003   0.6003   0.6003
       0.1463   0.6003   0.6003   0.6003
 
     [  1,  1,  4,  4  ]
     [  1    -1     0  ]
       0.1476   0.0547   0.0547   0.0547
       0.0547   0.1112   0.1112   0.1112
       0.0547   0.1112   0.1112   0.1112
       0.0547   0.1112   0.1112   0.1112
 
     [  2,  2,  4,  4  ]
     [  1    -1     0  ]
       0.3731   0.1463   0.1463   0.1463
       0.1463   0.6002   0.6002   0.6002
       0.1463   0.6002   0.6002   0.6002
       0.1463   0.6002   0.6002   0.6002
 
     [  1,  1,  4,  4  ]
     [  1     0    -1  ]
       0.1476   0.0547   0.0547   0.0547
       0.0547   0.1112   0.1112   0.1112
       0.0547   0.1112   0.1112   0.1112
       0.0547   0.1112   0.1112   0.1112
 
     [  2,  2,  4,  4  ]
     [  1     0    -1  ]
       0.3731   0.1463   0.1463   0.1463
       0.1463   0.6003   0.6003   0.6003
       0.1463   0.6003   0.6003   0.6003
       0.1463   0.6003   0.6003   0.6003
 
     [  1,  1,  4,  4  ]
     [  1     0     0  ]
       0.1476   0.0547   0.0547   0.0547
       0.0547   0.1112   0.1112   0.1112
       0.0547   0.1112   0.1112   0.1112
       0.0547   0.1112   0.1112   0.1112
 
     [  2,  1,  4,  4  ]
     [  1     0     0  ]
       0.7163   0.6782   0.6782   0.6782
       1.2753   1.5013   1.5013   1.5013
       1.2753   1.5013   1.5013   1.5013
       1.2753   1.5013   1.5013   1.5013
 
     [  2,  2,  4,  4  ]
     [  1     0     0  ]
       0.3731   0.1463   0.1463   0.1463
       0.1463   0.6003   0.6003   0.6003
       0.1463   0.6003   0.6003   0.6003
       0.1463   0.6003   0.6003   0.6003
 
 
     =========================
     E(+U+V) = -0.007540586 Ry
     =========================

     total cpu time spent up to now is       41.9 secs

     total energy              =    -364.57011150 Ry
     estimated scf accuracy    <       0.02184639 Ry
     Hubbard accuracy          <       0.00754059 Ry

     iteration #  2     ecut=   350.00 Ry     beta= 0.70
     Davidson diagonalization with overlap

---- Real-time Memory Report at c_bands before calling an iterative solver
          1010 MiB given to the printing process from OS
             0 MiB allocation reported by mallinfo(arena+hblkhd)
        433622 MiB available memory on the node where the printing process lives
------------------
     ethr =  7.80E-05,  avg # of iterations =  5.4
                                        
     -----------------------------------
     V[atom i, atom j, #orb(i), #orb(j)]
     -----------------------------------
     [  1,  1,  4,  4  ]
     [  0     0     0  ]
       0.0000   0.0000   0.0000   0.0000
       0.0000   0.3528   0.3528   0.3528
       0.0000   0.3528   0.3528   0.3528
       0.0000   0.3528   0.3528   0.3528
 
     [  1,  2,  4,  4  ]
     [  0     0     0  ]
       0.8539   1.2416   1.2416   1.2416
       0.7880   1.6277   1.6277   1.6277
       0.7880   1.6277   1.6277   1.6277
       0.7880   1.6277   1.6277   1.6277
 
     [  2,  1,  4,  4  ]
     [  0     0     0  ]
       0.8539   0.7880   0.7880   0.7880
       1.2416   1.6277   1.6277   1.6277
       1.2416   1.6277   1.6277   1.6277
       1.2416   1.6277   1.6277   1.6277
 
     [  2,  2,  4,  4  ]
     [  0     0     0  ]
       0.0000   0.0000   0.0000   0.0000
       0.0000   1.8666   1.8666   1.8666
       0.0000   1.8666   1.8666   1.8666
       0.0000   1.8666   1.8666   1.8666
 
     [  1,  1,  4,  4  ]
     [ -1     0     0  ]
       0.1612   0.0684   0.0684   0.0684
       0.0684   0.1431   0.1431   0.1431
       0.0684   0.1431   0.1431   0.1431
       0.0684   0.1431   0.1431   0.1431
 
     [  1,  2,  4,  4  ]
     [ -1     0     0  ]
       0.8539   1.2416   1.2416   1.2416
       0.7880   1.6277   1.6277   1.6277
       0.7880   1.6277   1.6277   1.6277
       0.7880   1.6277   1.6277   1.6277
 
     [  2,  2,  4,  4  ]
     [ -1     0     0  ]
       0.3960   0.1545   0.1545   0.1545
       0.1545   0.5785   0.5785   0.5785
       0.1545   0.5785   0.5785   0.5785
       0.1545   0.5785   0.5785   0.5785
 
     [  1,  1,  4,  4  ]
     [ -1     0     1  ]
       0.1612   0.0684   0.0684   0.0684
       0.0684   0.1431   0.1431   0.1431
       0.0684   0.1431   0.1431   0.1431
       0.0684   0.1431   0.1431   0.1431
 
     [  2,  2,  4,  4  ]
     [ -1     0     1  ]
       0.3960   0.1545   0.1545   0.1545
       0.1545   0.5785   0.5785   0.5785
       0.1545   0.5785   0.5785   0.5785
       0.1545   0.5785   0.5785   0.5785
 
     [  1,  1,  4,  4  ]
     [ -1     1     0  ]
       0.1612   0.0684   0.0684   0.0684
       0.0684   0.1431   0.1431   0.1431
       0.0684   0.1431   0.1431   0.1431
       0.0684   0.1431   0.1431   0.1431
 
     [  2,  2,  4,  4  ]
     [ -1     1     0  ]
       0.3960   0.1545   0.1545   0.1545
       0.1545   0.5784   0.5784   0.5784
       0.1545   0.5784   0.5784   0.5784
       0.1545   0.5784   0.5784   0.5784
 
     [  1,  1,  4,  4  ]
     [  0    -1     0  ]
       0.1612   0.0684   0.0684   0.0684
       0.0684   0.1431   0.1431   0.1431
       0.0684   0.1431   0.1431   0.1431
       0.0684   0.1431   0.1431   0.1431
 
     [  1,  2,  4,  4  ]
     [  0    -1     0  ]
       0.8539   1.2416   1.2416   1.2416
       0.7880   1.6277   1.6277   1.6277
       0.7880   1.6277   1.6277   1.6277
       0.7880   1.6277   1.6277   1.6277
 
     [  2,  2,  4,  4  ]
     [  0    -1     0  ]
       0.3960   0.1545   0.1545   0.1545
       0.1545   0.5785   0.5785   0.5785
       0.1545   0.5785   0.5785   0.5785
       0.1545   0.5785   0.5785   0.5785
 
     [  1,  1,  4,  4  ]
     [  0    -1     1  ]
       0.1612   0.0684   0.0684   0.0684
       0.0684   0.1431   0.1431   0.1431
       0.0684   0.1431   0.1431   0.1431
       0.0684   0.1431   0.1431   0.1431
 
     [  2,  2,  4,  4  ]
     [  0    -1     1  ]
       0.3960   0.1545   0.1545   0.1545
       0.1545   0.5785   0.5785   0.5785
       0.1545   0.5785   0.5785   0.5785
       0.1545   0.5785   0.5785   0.5785
 
     [  1,  1,  4,  4  ]
     [  0     0    -1  ]
       0.1612   0.0684   0.0684   0.0684
       0.0684   0.1431   0.1431   0.1431
       0.0684   0.1431   0.1431   0.1431
       0.0684   0.1431   0.1431   0.1431
 
     [  1,  2,  4,  4  ]
     [  0     0    -1  ]
       0.8539   1.2416   1.2416   1.2416
       0.7880   1.6277   1.6277   1.6277
       0.7880   1.6277   1.6277   1.6277
       0.7880   1.6277   1.6277   1.6277
 
     [  2,  2,  4,  4  ]
     [  0     0    -1  ]
       0.3960   0.1545   0.1545   0.1545
       0.1545   0.5784   0.5784   0.5784
       0.1545   0.5784   0.5784   0.5784
       0.1545   0.5784   0.5784   0.5784
 
     [  1,  1,  4,  4  ]
     [  0     0     1  ]
       0.1612   0.0684   0.0684   0.0684
       0.0684   0.1431   0.1431   0.1431
       0.0684   0.1431   0.1431   0.1431
       0.0684   0.1431   0.1431   0.1431
 
     [  2,  1,  4,  4  ]
     [  0     0     1  ]
       0.8539   0.7880   0.7880   0.7880
       1.2416   1.6277   1.6277   1.6277
       1.2416   1.6277   1.6277   1.6277
       1.2416   1.6277   1.6277   1.6277
 
     [  2,  2,  4,  4  ]
     [  0     0     1  ]
       0.3960   0.1545   0.1545   0.1545
       0.1545   0.5784   0.5784   0.5784
       0.1545   0.5784   0.5784   0.5784
       0.1545   0.5784   0.5784   0.5784
 
     [  1,  1,  4,  4  ]
     [  0     1    -1  ]
       0.1612   0.0684   0.0684   0.0684
       0.0684   0.1431   0.1431   0.1431
       0.0684   0.1431   0.1431   0.1431
       0.0684   0.1431   0.1431   0.1431
 
     [  2,  2,  4,  4  ]
     [  0     1    -1  ]
       0.3960   0.1545   0.1545   0.1545
       0.1545   0.5785   0.5785   0.5785
       0.1545   0.5785   0.5785   0.5785
       0.1545   0.5785   0.5785   0.5785
 
     [  1,  1,  4,  4  ]
     [  0     1     0  ]
       0.1612   0.0684   0.0684   0.0684
       0.0684   0.1431   0.1431   0.1431
       0.0684   0.1431   0.1431   0.1431
       0.0684   0.1431   0.1431   0.1431
 
     [  2,  1,  4,  4  ]
     [  0     1     0  ]
       0.8539   0.7880   0.7880   0.7880
       1.2416   1.6277   1.6277   1.6277
       1.2416   1.6277   1.6277   1.6277
       1.2416   1.6277   1.6277   1.6277
 
     [  2,  2,  4,  4  ]
     [  0     1     0  ]
       0.3960   0.1545   0.1545   0.1545
       0.1545   0.5785   0.5785   0.5785
       0.1545   0.5785   0.5785   0.5785
       0.1545   0.5785   0.5785   0.5785
 
     [  1,  1,  4,  4  ]
     [  1    -1     0  ]
       0.1612   0.0684   0.0684   0.0684
       0.0684   0.1431   0.1431   0.1431
       0.0684   0.1431   0.1431   0.1431
       0.0684   0.1431   0.1431   0.1431
 
     [  2,  2,  4,  4  ]
     [  1    -1     0  ]
       0.3960   0.1545   0.1545   0.1545
       0.1545   0.5784   0.5784   0.5784
       0.1545   0.5784   0.5784   0.5784
       0.1545   0.5784   0.5784   0.5784
 
     [  1,  1,  4,  4  ]
     [  1     0    -1  ]
       0.1612   0.0684   0.0684   0.0684
       0.0684   0.1431   0.1431   0.1431
       0.0684   0.1431   0.1431   0.1431
       0.0684   0.1431   0.1431   0.1431
 
     [  2,  2,  4,  4  ]
     [  1     0    -1  ]
       0.3960   0.1545   0.1545   0.1545
       0.1545   0.5785   0.5785   0.5785
       0.1545   0.5785   0.5785   0.5785
       0.1545   0.5785   0.5785   0.5785
 
     [  1,  1,  4,  4  ]
     [  1     0     0  ]
       0.1612   0.0684   0.0684   0.0684
       0.0684   0.1431   0.1431   0.1431
       0.0684   0.1431   0.1431   0.1431
       0.0684   0.1431   0.1431   0.1431
 
     [  2,  1,  4,  4  ]
     [  1     0     0  ]
       0.8539   0.7880   0.7880   0.7880
       1.2416   1.6277   1.6277   1.6277
       1.2416   1.6277   1.6277   1.6277
       1.2416   1.6277   1.6277   1.6277
 
     [  2,  2,  4,  4  ]
     [  1     0     0  ]
       0.3960   0.1545   0.1545   0.1545
       0.1545   0.5785   0.5785   0.5785
       0.1545   0.5785   0.5785   0.5785
       0.1545   0.5785   0.5785   0.5785
 
 
     =========================
     E(+U+V) = -0.024928214 Ry
     =========================

     total cpu time spent up to now is       53.1 secs

     total energy              =    -364.59476220 Ry
     estimated scf accuracy    <       0.02674967 Ry
     Hubbard accuracy          <       0.01738763 Ry

     iteration #  3     ecut=   350.00 Ry     beta= 0.70
     Davidson diagonalization with overlap

---- Real-time Memory Report at c_bands before calling an iterative solver
          1023 MiB given to the printing process from OS
             0 MiB allocation reported by mallinfo(arena+hblkhd)
        433597 MiB available memory on the node where the printing process lives
------------------
     ethr =  7.80E-05,  avg # of iterations =  2.3
                                        
     -----------------------------------
     V[atom i, atom j, #orb(i), #orb(j)]
     -----------------------------------
     [  1,  1,  4,  4  ]
     [  0     0     0  ]
       0.0000   0.0000   0.0000   0.0000
       0.0000   0.3596   0.3596   0.3596
       0.0000   0.3596   0.3596   0.3596
       0.0000   0.3596   0.3596   0.3596
 
     [  1,  2,  4,  4  ]
     [  0     0     0  ]
       0.8641   1.2688   1.2688   1.2688
       0.8154   1.6605   1.6605   1.6605
       0.8154   1.6605   1.6605   1.6605
       0.8154   1.6605   1.6605   1.6605
 
     [  2,  1,  4,  4  ]
     [  0     0     0  ]
       0.8641   0.8154   0.8154   0.8154
       1.2688   1.6605   1.6605   1.6605
       1.2688   1.6605   1.6605   1.6605
       1.2688   1.6605   1.6605   1.6605
 
     [  2,  2,  4,  4  ]
     [  0     0     0  ]
       0.0000   0.0000   0.0000   0.0000
       0.0000   1.9052   1.9052   1.9052
       0.0000   1.9052   1.9052   1.9052
       0.0000   1.9052   1.9052   1.9052
 
     [  1,  1,  4,  4  ]
     [ -1     0     0  ]
       0.1614   0.0696   0.0696   0.0696
       0.0696   0.1459   0.1459   0.1459
       0.0696   0.1459   0.1459   0.1459
       0.0696   0.1459   0.1459   0.1459
 
     [  1,  2,  4,  4  ]
     [ -1     0     0  ]
       0.8641   1.2688   1.2688   1.2688
       0.8154   1.6605   1.6605   1.6605
       0.8154   1.6605   1.6605   1.6605
       0.8154   1.6605   1.6605   1.6605
 
     [  2,  2,  4,  4  ]
     [ -1     0     0  ]
       0.4130   0.1585   0.1585   0.1585
       0.1585   0.5905   0.5905   0.5905
       0.1585   0.5905   0.5905   0.5905
       0.1585   0.5905   0.5905   0.5905
 
     [  1,  1,  4,  4  ]
     [ -1     0     1  ]
       0.1614   0.0696   0.0696   0.0696
       0.0696   0.1459   0.1459   0.1459
       0.0696   0.1459   0.1459   0.1459
       0.0696   0.1459   0.1459   0.1459
 
     [  2,  2,  4,  4  ]
     [ -1     0     1  ]
       0.4130   0.1585   0.1585   0.1585
       0.1585   0.5905   0.5905   0.5905
       0.1585   0.5905   0.5905   0.5905
       0.1585   0.5905   0.5905   0.5905
 
     [  1,  1,  4,  4  ]
     [ -1     1     0  ]
       0.1614   0.0696   0.0696   0.0696
       0.0696   0.1459   0.1459   0.1459
       0.0696   0.1459   0.1459   0.1459
       0.0696   0.1459   0.1459   0.1459
 
     [  2,  2,  4,  4  ]
     [ -1     1     0  ]
       0.4130   0.1585   0.1585   0.1585
       0.1585   0.5904   0.5904   0.5904
       0.1585   0.5904   0.5904   0.5904
       0.1585   0.5904   0.5904   0.5904
 
     [  1,  1,  4,  4  ]
     [  0    -1     0  ]
       0.1614   0.0696   0.0696   0.0696
       0.0696   0.1459   0.1459   0.1459
       0.0696   0.1459   0.1459   0.1459
       0.0696   0.1459   0.1459   0.1459
 
     [  1,  2,  4,  4  ]
     [  0    -1     0  ]
       0.8641   1.2688   1.2688   1.2688
       0.8154   1.6605   1.6605   1.6605
       0.8154   1.6605   1.6605   1.6605
       0.8154   1.6605   1.6605   1.6605
 
     [  2,  2,  4,  4  ]
     [  0    -1     0  ]
       0.4130   0.1585   0.1585   0.1585
       0.1585   0.5905   0.5905   0.5905
       0.1585   0.5905   0.5905   0.5905
       0.1585   0.5905   0.5905   0.5905
 
     [  1,  1,  4,  4  ]
     [  0    -1     1  ]
       0.1614   0.0696   0.0696   0.0696
       0.0696   0.1459   0.1459   0.1459
       0.0696   0.1459   0.1459   0.1459
       0.0696   0.1459   0.1459   0.1459
 
     [  2,  2,  4,  4  ]
     [  0    -1     1  ]
       0.4130   0.1585   0.1585   0.1585
       0.1585   0.5905   0.5905   0.5905
       0.1585   0.5905   0.5905   0.5905
       0.1585   0.5905   0.5905   0.5905
 
     [  1,  1,  4,  4  ]
     [  0     0    -1  ]
       0.1614   0.0696   0.0696   0.0696
       0.0696   0.1459   0.1459   0.1459
       0.0696   0.1459   0.1459   0.1459
       0.0696   0.1459   0.1459   0.1459
 
     [  1,  2,  4,  4  ]
     [  0     0    -1  ]
       0.8641   1.2688   1.2688   1.2688
       0.8154   1.6605   1.6605   1.6605
       0.8154   1.6605   1.6605   1.6605
       0.8154   1.6605   1.6605   1.6605
 
     [  2,  2,  4,  4  ]
     [  0     0    -1  ]
       0.4130   0.1585   0.1585   0.1585
       0.1585   0.5904   0.5904   0.5904
       0.1585   0.5904   0.5904   0.5904
       0.1585   0.5904   0.5904   0.5904
 
     [  1,  1,  4,  4  ]
     [  0     0     1  ]
       0.1614   0.0696   0.0696   0.0696
       0.0696   0.1459   0.1459   0.1459
       0.0696   0.1459   0.1459   0.1459
       0.0696   0.1459   0.1459   0.1459
 
     [  2,  1,  4,  4  ]
     [  0     0     1  ]
       0.8641   0.8154   0.8154   0.8154
       1.2688   1.6605   1.6605   1.6605
       1.2688   1.6605   1.6605   1.6605
       1.2688   1.6605   1.6605   1.6605
 
     [  2,  2,  4,  4  ]
     [  0     0     1  ]
       0.4130   0.1585   0.1585   0.1585
       0.1585   0.5904   0.5904   0.5904
       0.1585   0.5904   0.5904   0.5904
       0.1585   0.5904   0.5904   0.5904
 
     [  1,  1,  4,  4  ]
     [  0     1    -1  ]
       0.1614   0.0696   0.0696   0.0696
       0.0696   0.1459   0.1459   0.1459
       0.0696   0.1459   0.1459   0.1459
       0.0696   0.1459   0.1459   0.1459
 
     [  2,  2,  4,  4  ]
     [  0     1    -1  ]
       0.4130   0.1585   0.1585   0.1585
       0.1585   0.5905   0.5905   0.5905
       0.1585   0.5905   0.5905   0.5905
       0.1585   0.5905   0.5905   0.5905
 
     [  1,  1,  4,  4  ]
     [  0     1     0  ]
       0.1614   0.0696   0.0696   0.0696
       0.0696   0.1459   0.1459   0.1459
       0.0696   0.1459   0.1459   0.1459
       0.0696   0.1459   0.1459   0.1459
 
     [  2,  1,  4,  4  ]
     [  0     1     0  ]
       0.8641   0.8154   0.8154   0.8154
       1.2688   1.6605   1.6605   1.6605
       1.2688   1.6605   1.6605   1.6605
       1.2688   1.6605   1.6605   1.6605
 
     [  2,  2,  4,  4  ]
     [  0     1     0  ]
       0.4130   0.1585   0.1585   0.1585
       0.1585   0.5905   0.5905   0.5905
       0.1585   0.5905   0.5905   0.5905
       0.1585   0.5905   0.5905   0.5905
 
     [  1,  1,  4,  4  ]
     [  1    -1     0  ]
       0.1614   0.0696   0.0696   0.0696
       0.0696   0.1459   0.1459   0.1459
       0.0696   0.1459   0.1459   0.1459
       0.0696   0.1459   0.1459   0.1459
 
     [  2,  2,  4,  4  ]
     [  1    -1     0  ]
       0.4130   0.1585   0.1585   0.1585
       0.1585   0.5904   0.5904   0.5904
       0.1585   0.5904   0.5904   0.5904
       0.1585   0.5904   0.5904   0.5904
 
     [  1,  1,  4,  4  ]
     [  1     0    -1  ]
       0.1614   0.0696   0.0696   0.0696
       0.0696   0.1459   0.1459   0.1459
       0.0696   0.1459   0.1459   0.1459
       0.0696   0.1459   0.1459   0.1459
 
     [  2,  2,  4,  4  ]
     [  1     0    -1  ]
       0.4130   0.1585   0.1585   0.1585
       0.1585   0.5905   0.5905   0.5905
       0.1585   0.5905   0.5905   0.5905
       0.1585   0.5905   0.5905   0.5905
 
     [  1,  1,  4,  4  ]
     [  1     0     0  ]
       0.1614   0.0696   0.0696   0.0696
       0.0696   0.1459   0.1459   0.1459
       0.0696   0.1459   0.1459   0.1459
       0.0696   0.1459   0.1459   0.1459
 
     [  2,  1,  4,  4  ]
     [  1     0     0  ]
       0.8641   0.8154   0.8154   0.8154
       1.2688   1.6605   1.6605   1.6605
       1.2688   1.6605   1.6605   1.6605
       1.2688   1.6605   1.6605   1.6605
 
     [  2,  2,  4,  4  ]
     [  1     0     0  ]
       0.4130   0.1585   0.1585   0.1585
       0.1585   0.5905   0.5905   0.5905
       0.1585   0.5905   0.5905   0.5905
       0.1585   0.5905   0.5905   0.5905
 
 
     =========================
     E(+U+V) = -0.048211603 Ry
     =========================

     total cpu time spent up to now is       61.2 secs

     total energy              =    -364.59642918 Ry
     estimated scf accuracy    <       0.00467852 Ry
     Hubbard accuracy          <       0.02328339 Ry

     iteration #  4     ecut=   350.00 Ry     beta= 0.70
     Davidson diagonalization with overlap

---- Real-time Memory Report at c_bands before calling an iterative solver
          1034 MiB given to the printing process from OS
             0 MiB allocation reported by mallinfo(arena+hblkhd)
        433548 MiB available memory on the node where the printing process lives
------------------
     ethr =  1.67E-05,  avg # of iterations =  5.3
                                        
     -----------------------------------
     V[atom i, atom j, #orb(i), #orb(j)]
     -----------------------------------
     [  1,  1,  4,  4  ]
     [  0     0     0  ]
       0.0000   0.0000   0.0000   0.0000
       0.0000   0.3482   0.3482   0.3482
       0.0000   0.3482   0.3482   0.3482
       0.0000   0.3482   0.3482   0.3482
 
     [  1,  2,  4,  4  ]
     [  0     0     0  ]
       0.8313   1.2969   1.2969   1.2969
       0.8005   1.6654   1.6654   1.6654
       0.8005   1.6654   1.6654   1.6654
       0.8005   1.6654   1.6654   1.6654
 
     [  2,  1,  4,  4  ]
     [  0     0     0  ]
       0.8313   0.8005   0.8005   0.8005
       1.2969   1.6654   1.6654   1.6654
       1.2969   1.6654   1.6654   1.6654
       1.2969   1.6654   1.6654   1.6654
 
     [  2,  2,  4,  4  ]
     [  0     0     0  ]
       0.0000   0.0000   0.0000   0.0000
       0.0000   1.9574   1.9574   1.9574
       0.0000   1.9574   1.9574   1.9574
       0.0000   1.9574   1.9574   1.9574
 
     [  1,  1,  4,  4  ]
     [ -1     0     0  ]
       0.1568   0.0674   0.0674   0.0674
       0.0674   0.1413   0.1413   0.1413
       0.0674   0.1413   0.1413   0.1413
       0.0674   0.1413   0.1413   0.1413
 
     [  1,  2,  4,  4  ]
     [ -1     0     0  ]
       0.8313   1.2969   1.2969   1.2969
       0.8005   1.6654   1.6654   1.6654
       0.8005   1.6654   1.6654   1.6654
       0.8005   1.6654   1.6654   1.6654
 
     [  2,  2,  4,  4  ]
     [ -1     0     0  ]
       0.4103   0.1586   0.1586   0.1586
       0.1586   0.6067   0.6067   0.6067
       0.1586   0.6067   0.6067   0.6067
       0.1586   0.6067   0.6067   0.6067
 
     [  1,  1,  4,  4  ]
     [ -1     0     1  ]
       0.1568   0.0674   0.0674   0.0674
       0.0674   0.1413   0.1413   0.1413
       0.0674   0.1413   0.1413   0.1413
       0.0674   0.1413   0.1413   0.1413
 
     [  2,  2,  4,  4  ]
     [ -1     0     1  ]
       0.4103   0.1586   0.1586   0.1586
       0.1586   0.6067   0.6067   0.6067
       0.1586   0.6067   0.6067   0.6067
       0.1586   0.6067   0.6067   0.6067
 
     [  1,  1,  4,  4  ]
     [ -1     1     0  ]
       0.1568   0.0674   0.0674   0.0674
       0.0674   0.1413   0.1413   0.1413
       0.0674   0.1413   0.1413   0.1413
       0.0674   0.1413   0.1413   0.1413
 
     [  2,  2,  4,  4  ]
     [ -1     1     0  ]
       0.4103   0.1586   0.1586   0.1586
       0.1586   0.6066   0.6066   0.6066
       0.1586   0.6066   0.6066   0.6066
       0.1586   0.6066   0.6066   0.6066
 
     [  1,  1,  4,  4  ]
     [  0    -1     0  ]
       0.1568   0.0674   0.0674   0.0674
       0.0674   0.1413   0.1413   0.1413
       0.0674   0.1413   0.1413   0.1413
       0.0674   0.1413   0.1413   0.1413
 
     [  1,  2,  4,  4  ]
     [  0    -1     0  ]
       0.8313   1.2969   1.2969   1.2969
       0.8005   1.6654   1.6654   1.6654
       0.8005   1.6654   1.6654   1.6654
       0.8005   1.6654   1.6654   1.6654
 
     [  2,  2,  4,  4  ]
     [  0    -1     0  ]
       0.4103   0.1586   0.1586   0.1586
       0.1586   0.6067   0.6067   0.6067
       0.1586   0.6067   0.6067   0.6067
       0.1586   0.6067   0.6067   0.6067
 
     [  1,  1,  4,  4  ]
     [  0    -1     1  ]
       0.1568   0.0674   0.0674   0.0674
       0.0674   0.1413   0.1413   0.1413
       0.0674   0.1413   0.1413   0.1413
       0.0674   0.1413   0.1413   0.1413
 
     [  2,  2,  4,  4  ]
     [  0    -1     1  ]
       0.4103   0.1586   0.1586   0.1586
       0.1586   0.6067   0.6067   0.6067
       0.1586   0.6067   0.6067   0.6067
       0.1586   0.6067   0.6067   0.6067
 
     [  1,  1,  4,  4  ]
     [  0     0    -1  ]
       0.1568   0.0674   0.0674   0.0674
       0.0674   0.1413   0.1413   0.1413
       0.0674   0.1413   0.1413   0.1413
       0.0674   0.1413   0.1413   0.1413
 
     [  1,  2,  4,  4  ]
     [  0     0    -1  ]
       0.8313   1.2969   1.2969   1.2969
       0.8005   1.6654   1.6654   1.6654
       0.8005   1.6654   1.6654   1.6654
       0.8005   1.6654   1.6654   1.6654
 
     [  2,  2,  4,  4  ]
     [  0     0    -1  ]
       0.4103   0.1586   0.1586   0.1586
       0.1586   0.6066   0.6066   0.6066
       0.1586   0.6066   0.6066   0.6066
       0.1586   0.6066   0.6066   0.6066
 
     [  1,  1,  4,  4  ]
     [  0     0     1  ]
       0.1568   0.0674   0.0674   0.0674
       0.0674   0.1413   0.1413   0.1413
       0.0674   0.1413   0.1413   0.1413
       0.0674   0.1413   0.1413   0.1413
 
     [  2,  1,  4,  4  ]
     [  0     0     1  ]
       0.8313   0.8005   0.8005   0.8005
       1.2969   1.6654   1.6654   1.6654
       1.2969   1.6654   1.6654   1.6654
       1.2969   1.6654   1.6654   1.6654
 
     [  2,  2,  4,  4  ]
     [  0     0     1  ]
       0.4103   0.1586   0.1586   0.1586
       0.1586   0.6066   0.6066   0.6066
       0.1586   0.6066   0.6066   0.6066
       0.1586   0.6066   0.6066   0.6066
 
     [  1,  1,  4,  4  ]
     [  0     1    -1  ]
       0.1568   0.0674   0.0674   0.0674
       0.0674   0.1413   0.1413   0.1413
       0.0674   0.1413   0.1413   0.1413
       0.0674   0.1413   0.1413   0.1413
 
     [  2,  2,  4,  4  ]
     [  0     1    -1  ]
       0.4103   0.1586   0.1586   0.1586
       0.1586   0.6067   0.6067   0.6067
       0.1586   0.6067   0.6067   0.6067
       0.1586   0.6067   0.6067   0.6067
 
     [  1,  1,  4,  4  ]
     [  0     1     0  ]
       0.1568   0.0674   0.0674   0.0674
       0.0674   0.1413   0.1413   0.1413
       0.0674   0.1413   0.1413   0.1413
       0.0674   0.1413   0.1413   0.1413
 
     [  2,  1,  4,  4  ]
     [  0     1     0  ]
       0.8313   0.8005   0.8005   0.8005
       1.2969   1.6654   1.6654   1.6654
       1.2969   1.6654   1.6654   1.6654
       1.2969   1.6654   1.6654   1.6654
 
     [  2,  2,  4,  4  ]
     [  0     1     0  ]
       0.4103   0.1586   0.1586   0.1586
       0.1586   0.6067   0.6067   0.6067
       0.1586   0.6067   0.6067   0.6067
       0.1586   0.6067   0.6067   0.6067
 
     [  1,  1,  4,  4  ]
     [  1    -1     0  ]
       0.1568   0.0674   0.0674   0.0674
       0.0674   0.1413   0.1413   0.1413
       0.0674   0.1413   0.1413   0.1413
       0.0674   0.1413   0.1413   0.1413
 
     [  2,  2,  4,  4  ]
     [  1    -1     0  ]
       0.4103   0.1586   0.1586   0.1586
       0.1586   0.6066   0.6066   0.6066
       0.1586   0.6066   0.6066   0.6066
       0.1586   0.6066   0.6066   0.6066
 
     [  1,  1,  4,  4  ]
     [  1     0    -1  ]
       0.1568   0.0674   0.0674   0.0674
       0.0674   0.1413   0.1413   0.1413
       0.0674   0.1413   0.1413   0.1413
       0.0674   0.1413   0.1413   0.1413
 
     [  2,  2,  4,  4  ]
     [  1     0    -1  ]
       0.4103   0.1586   0.1586   0.1586
       0.1586   0.6067   0.6067   0.6067
       0.1586   0.6067   0.6067   0.6067
       0.1586   0.6067   0.6067   0.6067
 
     [  1,  1,  4,  4  ]
     [  1     0     0  ]
       0.1568   0.0674   0.0674   0.0674
       0.0674   0.1413   0.1413   0.1413
       0.0674   0.1413   0.1413   0.1413
       0.0674   0.1413   0.1413   0.1413
 
     [  2,  1,  4,  4  ]
     [  1     0     0  ]
       0.8313   0.8005   0.8005   0.8005
       1.2969   1.6654   1.6654   1.6654
       1.2969   1.6654   1.6654   1.6654
       1.2969   1.6654   1.6654   1.6654
 
     [  2,  2,  4,  4  ]
     [  1     0     0  ]
       0.4103   0.1586   0.1586   0.1586
       0.1586   0.6067   0.6067   0.6067
       0.1586   0.6067   0.6067   0.6067
       0.1586   0.6067   0.6067   0.6067
 
 
     =========================
     E(+U+V) = -0.046879629 Ry
     =========================

     total cpu time spent up to now is       72.4 secs

     total energy              =    -364.59622103 Ry
     estimated scf accuracy    <       0.00084908 Ry
     Hubbard accuracy          <       0.00133197 Ry

     iteration #  5     ecut=   350.00 Ry     beta= 0.70
     Davidson diagonalization with overlap

---- Real-time Memory Report at c_bands before calling an iterative solver
          1043 MiB given to the printing process from OS
             0 MiB allocation reported by mallinfo(arena+hblkhd)
        433512 MiB available memory on the node where the printing process lives
------------------
     ethr =  3.03E-06,  avg # of iterations =  2.4
                                        
     -----------------------------------
     V[atom i, atom j, #orb(i), #orb(j)]
     -----------------------------------
     [  1,  1,  4,  4  ]
     [  0     0     0  ]
       0.0000   0.0000   0.0000   0.0000
       0.0000   0.3475   0.3475   0.3475
       0.0000   0.3475   0.3475   0.3475
       0.0000   0.3475   0.3475   0.3475
 
     [  1,  2,  4,  4  ]
     [  0     0     0  ]
       0.8319   1.3011   1.3011   1.3011
       0.8032   1.6689   1.6689   1.6689
       0.8032   1.6689   1.6689   1.6689
       0.8032   1.6689   1.6689   1.6689
 
     [  2,  1,  4,  4  ]
     [  0     0     0  ]
       0.8319   0.8032   0.8032   0.8032
       1.3011   1.6689   1.6689   1.6689
[...]
     1.0000   1.0000   1.0000   1.0000   1.0000   1.0000   1.0000   1.0000
     1.0000   1.0000   1.0000   1.0000   0.0000   0.0000   0.0000   0.0000
     0.0000   0.0000   0.0000   0.0000

          k = 0.8000 0.0000 0.9333 ( 33830 PWs)   bands (ev):

   -27.0838 -27.0836 -27.0833 -27.0833 -26.3595 -26.3592 -26.3540 -26.3540
   -26.3538 -26.3537  -6.4805  -6.4492  -6.3991  -6.3914  -6.0462  -5.9931
    -5.9434  -5.9336  -5.9322  -5.9183  -1.9442  -1.9430   1.0997   1.1308
     4.4169   4.4657   4.9711   4.9837  10.9103  10.9265  11.6952  11.7388
    17.6401  17.7543  17.8473  17.9038

     occupation numbers 
     1.0000   1.0000   1.0000   1.0000   1.0000   1.0000   1.0000   1.0000
     1.0000   1.0000   1.0000   1.0000   1.0000   1.0000   1.0000   1.0000
     1.0000   1.0000   1.0000   1.0000   1.0000   1.0000   1.0000   1.0000
     1.0000   1.0000   1.0000   1.0000   0.0000   0.0000   0.0000   0.0000
     0.0000   0.0000   0.0000   0.0000

          k =-0.2667 0.5333 0.0000 ( 33879 PWs)   bands (ev):

   -27.0839 -27.0838 -27.0837 -27.0835 -26.3598 -26.3595 -26.3544 -26.3543
   -26.3539 -26.3538  -6.4596  -6.4354  -6.4077  -6.4018  -6.0330  -5.9890
    -5.9513  -5.9466  -5.9290  -5.9280  -3.2017  -3.1960   3.0003   3.0349
     5.2237   5.2934   6.4671   6.5115  12.0533  12.1806  12.3217  12.3858
    14.1582  14.1807  15.6826  15.7161

     occupation numbers 
     1.0000   1.0000   1.0000   1.0000   1.0000   1.0000   1.0000   1.0000
     1.0000   1.0000   1.0000   1.0000   1.0000   1.0000   1.0000   1.0000
     1.0000   1.0000   1.0000   1.0000   1.0000   1.0000   1.0000   1.0000
     1.0000   1.0000   1.0000   1.0000   0.0000   0.0000   0.0000   0.0000
     0.0000   0.0000   0.0000   0.0000

          k =-0.3333 0.6000-0.0667 ( 33876 PWs)   bands (ev):

   -27.0839 -27.0837 -27.0836 -27.0835 -26.3597 -26.3594 -26.3544 -26.3542
   -26.3538 -26.3537  -6.4688  -6.4366  -6.4053  -6.3983  -6.0430  -5.9835
    -5.9541  -5.9474  -5.9262  -5.9253  -2.8755  -2.8690   2.3234   2.3611
     4.7766   4.8457   6.1853   6.2256  12.1053  12.1729  12.9201  12.9474
    14.0688  14.1063  16.0534  16.0895

     occupation numbers 
     1.0000   1.0000   1.0000   1.0000   1.0000   1.0000   1.0000   1.0000
     1.0000   1.0000   1.0000   1.0000   1.0000   1.0000   1.0000   1.0000
     1.0000   1.0000   1.0000   1.0000   1.0000   1.0000   1.0000   1.0000
     1.0000   1.0000   1.0000   1.0000   0.0000   0.0000   0.0000   0.0000
     0.0000   0.0000   0.0000   0.0000

          k = 0.6000-0.3333 0.8667 ( 33847 PWs)   bands (ev):

   -27.0838 -27.0837 -27.0835 -27.0834 -26.3596 -26.3593 -26.3544 -26.3542
   -26.3538 -26.3537  -6.4756  -6.4374  -6.4038  -6.3954  -6.0506  -5.9784
    -5.9572  -5.9483  -5.9241  -5.9230  -2.5514  -2.5453   1.7097   1.7477
     4.5240   4.5898   5.9378   5.9738  12.0569  12.1134  13.1772  13.1973
    14.6093  14.6661  16.1690  16.2097

     occupation numbers 
     1.0000   1.0000   1.0000   1.0000   1.0000   1.0000   1.0000   1.0000
     1.0000   1.0000   1.0000   1.0000   1.0000   1.0000   1.0000   1.0000
     1.0000   1.0000   1.0000   1.0000   1.0000   1.0000   1.0000   1.0000
     1.0000   1.0000   1.0000   1.0000   0.0000   0.0000   0.0000   0.0000
     0.0000   0.0000   0.0000   0.0000

          k = 0.5333-0.2667 0.8000 ( 33836 PWs)   bands (ev):

   -27.0838 -27.0837 -27.0835 -27.0834 -26.3596 -26.3592 -26.3544 -26.3542
   -26.3537 -26.3536  -6.4793  -6.4378  -6.4031  -6.3938  -6.0546  -5.9748
    -5.9597  -5.9488  -5.9229  -5.9219  -2.3306  -2.3252   1.3269   1.3650
     4.4142   4.4776   5.7960   5.8290  12.0286  12.0827  13.1588  13.1687
    15.3729  15.4845  16.3814  16.4532

     occupation numbers 
     1.0000   1.0000   1.0000   1.0000   1.0000   1.0000   1.0000   1.0000
     1.0000   1.0000   1.0000   1.0000   1.0000   1.0000   1.0000   1.0000
     1.0000   1.0000   1.0000   1.0000   1.0000   1.0000   1.0000   1.0000
     1.0000   1.0000   1.0000   1.0000   0.0000   0.0000   0.0000   0.0000
     0.0000   0.0000   0.0000   0.0000

          k =-0.2667 0.6667 0.0000 ( 33883 PWs)   bands (ev):

   -27.0839 -27.0837 -27.0835 -27.0834 -26.3597 -26.3594 -26.3543 -26.3541
   -26.3539 -26.3537  -6.4708  -6.4400  -6.4037  -6.3966  -6.0429  -5.9880
    -5.9467  -5.9453  -5.9288  -5.9245  -2.7533  -2.7478   2.2481   2.2836
     4.7776   4.8531   5.6871   5.7410  11.8846  11.9164  12.3389  12.3832
    14.4976  14.5108  17.0256  17.0539

     occupation numbers 
     1.0000   1.0000   1.0000   1.0000   1.0000   1.0000   1.0000   1.0000
     1.0000   1.0000   1.0000   1.0000   1.0000   1.0000   1.0000   1.0000
     1.0000   1.0000   1.0000   1.0000   1.0000   1.0000   1.0000   1.0000
     1.0000   1.0000   1.0000   1.0000   0.0000   0.0000   0.0000   0.0000
     0.0000   0.0000   0.0000   0.0000

          k = 0.6667-0.2667 0.9333 ( 33848 PWs)   bands (ev):

   -27.0838 -27.0836 -27.0835 -27.0834 -26.3596 -26.3593 -26.3543 -26.3541
   -26.3538 -26.3537  -6.4784  -6.4400  -6.4016  -6.3933  -6.0524  -5.9818
    -5.9489  -5.9461  -5.9270  -5.9222  -2.4454  -2.4400   1.7578   1.8002
     4.3817   4.4571   5.4389   5.4852  12.0782  12.1151  13.0117  13.0725
    14.2604  14.2921  17.2735  17.3045

     occupation numbers 
     1.0000   1.0000   1.0000   1.0000   1.0000   1.0000   1.0000   1.0000
     1.0000   1.0000   1.0000   1.0000   1.0000   1.0000   1.0000   1.0000
     1.0000   1.0000   1.0000   1.0000   1.0000   1.0000   1.0000   1.0000
     1.0000   1.0000   1.0000   1.0000   0.0000   0.0000   0.0000   0.0000
     0.0000   0.0000   0.0000   0.0000

          k = 0.6000-0.2000 0.8667 ( 33847 PWs)   bands (ev):

   -27.0838 -27.0836 -27.0835 -27.0834 -26.3596 -26.3592 -26.3543 -26.3541
   -26.3538 -26.3537  -6.4832  -6.4398  -6.4004  -6.3908  -6.0592  -5.9765
    -5.9521  -5.9466  -5.9252  -5.9213  -2.2070  -2.2025   1.4042   1.4521
     4.1049   4.1784   5.3210   5.3583  12.1508  12.1915  13.6528  13.7218
    14.4628  14.5208  16.9236  16.9609

     occupation numbers 
     1.0000   1.0000   1.0000   1.0000   1.0000   1.0000   1.0000   1.0000
     1.0000   1.0000   1.0000   1.0000   1.0000   1.0000   1.0000   1.0000
     1.0000   1.0000   1.0000   1.0000   1.0000   1.0000   1.0000   1.0000
     1.0000   1.0000   1.0000   1.0000   0.0000   0.0000   0.0000   0.0000
     0.0000   0.0000   0.0000   0.0000

          k = 0.5333-0.1333 0.8000 ( 33841 PWs)   bands (ev):

   -27.0838 -27.0836 -27.0835 -27.0834 -26.3596 -26.3592 -26.3543 -26.3541
   -26.3538 -26.3537  -6.4847  -6.4393  -6.4002  -6.3898  -6.0618  -5.9732
    -5.9552  -5.9469  -5.9239  -5.9216  -2.1432  -2.1391   1.3168   1.3685
     3.9566   4.0304   5.3692   5.4024  12.2675  12.3158  13.6447  13.6708
    15.2685  15.3847  16.1185  16.1904

     occupation numbers 
     1.0000   1.0000   1.0000   1.0000   1.0000   1.0000   1.0000   1.0000
     1.0000   1.0000   1.0000   1.0000   1.0000   1.0000   1.0000   1.0000
     1.0000   1.0000   1.0000   1.0000   1.0000   1.0000   1.0000   1.0000
     1.0000   1.0000   1.0000   1.0000   0.0000   0.0000   0.0000   0.0000
     0.0000   0.0000   0.0000   0.0000

          k = 0.4667-0.0667 0.7333 ( 33832 PWs)   bands (ev):

   -27.0838 -27.0836 -27.0835 -27.0834 -26.3596 -26.3592 -26.3543 -26.3541
   -26.3538 -26.3537  -6.4825  -6.4387  -6.4008  -6.3909  -6.0596  -5.9737
    -5.9565  -5.9469  -5.9238  -5.9224  -2.2901  -2.2847   1.5256   1.5780
     3.9808   4.0566   5.5647   5.5989  12.4108  12.4742  13.5669  13.5858
    14.5594  14.6198  16.9122  16.9508

     occupation numbers 
     1.0000   1.0000   1.0000   1.0000   1.0000   1.0000   1.0000   1.0000
     1.0000   1.0000   1.0000   1.0000   1.0000   1.0000   1.0000   1.0000
     1.0000   1.0000   1.0000   1.0000   1.0000   1.0000   1.0000   1.0000
     1.0000   1.0000   1.0000   1.0000   0.0000   0.0000   0.0000   0.0000
     0.0000   0.0000   0.0000   0.0000

          k = 0.4000 0.0000 0.6667 ( 33841 PWs)   bands (ev):

   -27.0838 -27.0836 -27.0836 -27.0834 -26.3596 -26.3593 -26.3543 -26.3541
   -26.3538 -26.3537  -6.4770  -6.4379  -6.4024  -6.3941  -6.0530  -5.9779
    -5.9555  -5.9470  -5.9250  -5.9234  -2.5671  -2.5606   1.9089   1.9571
     4.2416   4.3170   5.8615   5.8989  12.4835  12.5757  13.2434  13.2868
    13.9425  13.9979  16.8374  16.8821

     occupation numbers 
     1.0000   1.0000   1.0000   1.0000   1.0000   1.0000   1.0000   1.0000
     1.0000   1.0000   1.0000   1.0000   1.0000   1.0000   1.0000   1.0000
     1.0000   1.0000   1.0000   1.0000   1.0000   1.0000   1.0000   1.0000
     1.0000   1.0000   1.0000   1.0000   0.0000   0.0000   0.0000   0.0000
     0.0000   0.0000   0.0000   0.0000

          k = 0.7333-0.2000 1.0000 ( 33857 PWs)   bands (ev):

   -27.0838 -27.0836 -27.0834 -27.0833 -26.3596 -26.3592 -26.3541 -26.3540
   -26.3538 -26.3537  -6.4790  -6.4438  -6.4003  -6.3928  -6.0497  -5.9873
    -5.9447  -5.9409  -5.9299  -5.9208  -2.2992  -2.2953   1.6044   1.6411
     4.5062   4.5882   5.0584   5.1170  11.6991  11.7257  12.0893  12.1492
    15.3961  15.4014  18.0862  18.1377

     occupation numbers 
     1.0000   1.0000   1.0000   1.0000   1.0000   1.0000   1.0000   1.0000
     1.0000   1.0000   1.0000   1.0000   1.0000   1.0000   1.0000   1.0000
     1.0000   1.0000   1.0000   1.0000   1.0000   1.0000   1.0000   1.0000
     1.0000   1.0000   1.0000   1.0000   0.0000   0.0000   0.0000   0.0000
     0.0000   0.0000   0.0000   0.0000

          k = 0.6667-0.1333 0.9333 ( 33838 PWs)   bands (ev):

   -27.0838 -27.0836 -27.0834 -27.0834 -26.3596 -26.3592 -26.3541 -26.3540
   -26.3538 -26.3537  -6.4845  -6.4425  -6.3987  -6.3902  -6.0584  -5.9808
    -5.9453  -5.9440  -5.9282  -5.9200  -2.0790  -2.0759   1.3403   1.3873
     4.1505   4.2262   4.9118   4.9511  11.9364  11.9626  12.9121  12.9687
    15.1327  15.1437  17.2577  17.2865

     occupation numbers 
     1.0000   1.0000   1.0000   1.0000   1.0000   1.0000   1.0000   1.0000
     1.0000   1.0000   1.0000   1.0000   1.0000   1.0000   1.0000   1.0000
     1.0000   1.0000   1.0000   1.0000   1.0000   1.0000   1.0000   1.0000
     1.0000   1.0000   1.0000   1.0000   0.0000   0.0000   0.0000   0.0000
     0.0000   0.0000   0.0000   0.0000

          k = 0.6000-0.0667 0.8667 ( 33837 PWs)   bands (ev):

   -27.0838 -27.0835 -27.0834 -27.0834 -26.3596 -26.3591 -26.3542 -26.3540
   -26.3539 -26.3537  -6.4872  -6.4411  -6.3983  -6.3883  -6.0639  -5.9755
    -5.9486  -5.9458  -5.9261  -5.9204  -1.9931  -1.9905   1.2566   1.3129
     3.8432   3.9190   4.9910   5.0205  12.0836  12.1158  13.9969  14.0890
    14.9436  14.9927  16.0253  16.0384

     occupation numbers 
     1.0000   1.0000   1.0000   1.0000   1.0000   1.0000   1.0000   1.0000
     1.0000   1.0000   1.0000   1.0000   1.0000   1.0000   1.0000   1.0000
     1.0000   1.0000   1.0000   1.0000   1.0000   1.0000   1.0000   1.0000
     1.0000   1.0000   1.0000   1.0000   0.0000   0.0000   0.0000   0.0000
     0.0000   0.0000   0.0000   0.0000

          k = 0.5333 0.0000 0.8000 ( 33828 PWs)   bands (ev):

   -27.0838 -27.0835 -27.0835 -27.0834 -26.3596 -26.3591 -26.3542 -26.3540
   -26.3539 -26.3537  -6.4866  -6.4399  -6.3989  -6.3884  -6.0644  -5.9725
    -5.9535  -5.9462  -5.9244  -5.9216  -2.0788  -2.0751   1.3505   1.4102
     3.7517   3.8310   5.2258   5.2567  12.2741  12.3165  14.4622  14.5309
    14.6427  14.7028  15.7682  15.8162

     occupation numbers 
     1.0000   1.0000   1.0000   1.0000   1.0000   1.0000   1.0000   1.0000
     1.0000   1.0000   1.0000   1.0000   1.0000   1.0000   1.0000   1.0000
     1.0000   1.0000   1.0000   1.0000   1.0000   1.0000   1.0000   1.0000
     1.0000   1.0000   1.0000   1.0000   0.0000   0.0000   0.0000   0.0000
     0.0000   0.0000   0.0000   0.0000

          k = 0.7333-0.0667 1.0000 ( 33847 PWs)   bands (ev):

   -27.0838 -27.0836 -27.0833 -27.0833 -26.3595 -26.3592 -26.3540 -26.3540
   -26.3538 -26.3537  -6.4832  -6.4459  -6.3984  -6.3908  -6.0531  -5.9869
    -5.9442  -5.9372  -5.9310  -5.9187  -1.9773  -1.9756   1.1900   1.2285
     4.4284   4.5231   4.6650   4.7154  11.6108  11.6472  11.9059  11.9791
    16.4500  16.4640  17.5216  17.5454

     occupation numbers 
     1.0000   1.0000   1.0000   1.0000   1.0000   1.0000   1.0000   1.0000
     1.0000   1.0000   1.0000   1.0000   1.0000   1.0000   1.0000   1.0000
     1.0000   1.0000   1.0000   1.0000   1.0000   1.0000   1.0000   1.0000
     1.0000   1.0000   1.0000   1.0000   0.0000   0.0000   0.0000   0.0000
     0.0000   0.0000   0.0000   0.0000

          k = 0.6667 0.0000 0.9333 ( 33830 PWs)   bands (ev):

   -27.0838 -27.0836 -27.0834 -27.0833 -26.3595 -26.3591 -26.3541 -26.3540
   -26.3538 -26.3537  -6.4866  -6.4434  -6.3976  -6.3891  -6.0605  -5.9804
    -5.9449  -5.9421  -5.9287  -5.9192  -1.9256  -1.9240   1.1757   1.2249
     4.0799   4.1509   4.7267   4.7471  11.8809  11.9047  12.8557  12.9099
    16.1356  16.1872  16.2141  16.2768

     occupation numbers 
     1.0000   1.0000   1.0000   1.0000   1.0000   1.0000   1.0000   1.0000
     1.0000   1.0000   1.0000   1.0000   1.0000   1.0000   1.0000   1.0000
     1.0000   1.0000   1.0000   1.0000   1.0000   1.0000   1.0000   1.0000
     1.0000   1.0000   1.0000   1.0000   0.0000   0.0000   0.0000   0.0000
     0.0000   0.0000   0.0000   0.0000

          k = 0.6000-0.2000 1.0000 ( 33812 PWs)   bands (ev):

   -27.0838 -27.0836 -27.0835 -27.0834 -26.3596 -26.3592 -26.3542 -26.3540
   -26.3539 -26.3537  -6.4843  -6.4404  -6.3987  -6.3905  -6.0608  -5.9761
    -5.9502  -5.9460  -5.9258  -5.9215  -2.1881  -2.1838   1.4821   1.5342
     4.0494   4.1310   5.0851   5.1296  12.9067  13.0167  13.1275  13.1434
    14.0186  14.0646  17.0826  17.1040

     occupation numbers 
     1.0000   1.0000   1.0000   1.0000   1.0000   1.0000   1.0000   1.0000
     1.0000   1.0000   1.0000   1.0000   1.0000   1.0000   1.0000   1.0000
     1.0000   1.0000   1.0000   1.0000   1.0000   1.0000   1.0000   1.0000
     1.0000   1.0000   1.0000   1.0000   0.0000   0.0000   0.0000   0.0000
     0.0000   0.0000   0.0000   0.0000

          k = 0.5333-0.1333 0.9333 ( 33827 PWs)   bands (ev):

   -27.0838 -27.0835 -27.0835 -27.0834 -26.3596 -26.3591 -26.3542 -26.3540
   -26.3539 -26.3537  -6.4875  -6.4405  -6.3973  -6.3888  -6.0656  -5.9721
    -5.9518  -5.9460  -5.9245  -5.9218  -2.0233  -2.0203   1.3053   1.3629
     3.8983   3.9814   4.8671   4.9056  13.0275  13.1299  13.5856  13.6379
    14.4053  14.4616  15.8239  15.8471

     occupation numbers 
     1.0000   1.0000   1.0000   1.0000   1.0000   1.0000   1.0000   1.0000
     1.0000   1.0000   1.0000   1.0000   1.0000   1.0000   1.0000   1.0000
     1.0000   1.0000   1.0000   1.0000   1.0000   1.0000   1.0000   1.0000
     1.0000   1.0000   1.0000   1.0000   0.0000   0.0000   0.0000   0.0000
     0.0000   0.0000   0.0000   0.0000

          k = 0.6000-0.0667 1.0000 ( 33830 PWs)   bands (ev):

   -27.0838 -27.0835 -27.0834 -27.0834 -26.3596 -26.3591 -26.3541 -26.3540
   -26.3539 -26.3537  -6.4881  -6.4419  -6.3963  -6.3889  -6.0649  -5.9751
    -5.9466  -5.9454  -5.9266  -5.9205  -1.9412  -1.9392   1.2341   1.2890
     4.0868   4.1854   4.5070   4.5465  12.8924  12.9437  13.0570  13.1535
    14.8565  14.8807  15.9637  15.9751

     occupation numbers 
     1.0000   1.0000   1.0000   1.0000   1.0000   1.0000   1.0000   1.0000
     1.0000   1.0000   1.0000   1.0000   1.0000   1.0000   1.0000   1.0000
     1.0000   1.0000   1.0000   1.0000   1.0000   1.0000   1.0000   1.0000
     1.0000   1.0000   1.0000   1.0000   0.0000   0.0000   0.0000   0.0000
     0.0000   0.0000   0.0000   0.0000

          k = 0.5333-0.0000 0.9333 ( 33830 PWs)   bands (ev):

   -27.0838 -27.0835 -27.0834 -27.0834 -26.3596 -26.3591 -26.3541 -26.3540
   -26.3539 -26.3537  -6.4893  -6.4412  -6.3958  -6.3882  -6.0677  -5.9714
    -5.9499  -5.9456  -5.9249  -5.9216  -1.9215  -1.9197   1.2329   1.2926
     3.9505   4.0412   4.5308   4.5597  13.1247  13.1927  14.0010  14.1161
    14.5300  14.5808  14.9431  14.9722

     occupation numbers 
     1.0000   1.0000   1.0000   1.0000   1.0000   1.0000   1.0000   1.0000
     1.0000   1.0000   1.0000   1.0000   1.0000   1.0000   1.0000   1.0000
     1.0000   1.0000   1.0000   1.0000   1.0000   1.0000   1.0000   1.0000
     1.0000   1.0000   1.0000   1.0000   0.0000   0.0000   0.0000   0.0000
     0.0000   0.0000   0.0000   0.0000

     the Fermi energy is     8.7530 ev

!    total energy              =    -364.59661862 Ry
     estimated scf accuracy    <          5.7E-20 Ry
     Hubbard accuracy          <          4.9E-11 Ry
     smearing contrib. (-TS)   =      -0.00000000 Ry
     internal energy E=F+TS    =    -364.59661862 Ry

     The total energy is F=E-TS. E is the sum of the following terms:
     one-electron contribution =    -192.77007215 Ry
     hartree contribution      =     114.71097381 Ry
     xc contribution           =     -88.42960179 Ry
     ewald contribution        =    -198.06062038 Ry
     Extended Hubbard energy   =      -0.04729811 Ry

     convergence has been achieved in  19 iterations

     Writing all to output data dir ./temp/GaAs.save/ :
     XML data file, charge density, pseudopotentials, collected wavefunctions
 
     init_run     :      2.86s CPU      3.09s WALL (       1 calls)
     electrons    :    194.44s CPU    196.56s WALL (       1 calls)

     Called by init_run:
     wfcinit      :      1.98s CPU      2.14s WALL (       1 calls)
     wfcinit:wfcr :      1.69s CPU      1.73s WALL (       8 calls)
     potinit      :      0.30s CPU      0.32s WALL (       1 calls)
     hinit0       :      0.51s CPU      0.54s WALL (       1 calls)

     Called by electrons:
     c_bands      :    160.54s CPU    161.94s WALL (      20 calls)
     sum_band     :     28.80s CPU     29.08s WALL (      20 calls)
     v_of_rho     :      1.02s CPU      1.06s WALL (      20 calls)
     v_h          :      0.08s CPU      0.08s WALL (      20 calls)
     v_xc         :      0.94s CPU      0.97s WALL (      20 calls)
     mix_rho      :      1.38s CPU      1.47s WALL (      20 calls)

     Called by c_bands:
     init_us_2    :      0.70s CPU      0.71s WALL (     336 calls)
     init_us_2:cp :      0.69s CPU      0.71s WALL (     336 calls)
     cegterg      :    132.96s CPU    134.13s WALL (     160 calls)

     Called by sum_band:
     sum_band:wei :      0.05s CPU      0.05s WALL (      20 calls)
     sum_band:loo :     17.18s CPU     17.33s WALL (      20 calls)
     sum_band:buf :      0.43s CPU      0.44s WALL (     160 calls)
     sum_band:ini :      0.35s CPU      0.36s WALL (     160 calls)

     Called by *egterg:
     cdiaghg      :      0.91s CPU      0.96s WALL (     666 calls)
     cegterg:over :      4.06s CPU      4.09s WALL (     514 calls)
     cegterg:upda :      3.14s CPU      3.18s WALL (     514 calls)
     cegterg:last :      4.89s CPU      4.93s WALL (     365 calls)
     h_psi        :    119.05s CPU    120.05s WALL (     682 calls)
     g_psi        :      0.32s CPU      0.32s WALL (     514 calls)

     Called by h_psi:
     h_psi:calbec :      2.87s CPU      2.90s WALL (     682 calls)
     vloc_psi     :     85.67s CPU     86.39s WALL (     682 calls)
     add_vuspsi   :      2.85s CPU      2.87s WALL (     682 calls)

     General routines
     calbec       :      3.13s CPU      3.18s WALL (     850 calls)
     fft          :      1.01s CPU      1.05s WALL (     322 calls)
     ffts         :      0.15s CPU      0.15s WALL (      80 calls)
     fftw         :     88.90s CPU     89.63s WALL (   80192 calls)
 
     Parallel routines

     Extended Hubbard routines
     new_ns_e0_nc :     10.75s CPU     10.86s WALL (      20 calls)
     vhpsi_v_nc   :     26.72s CPU     26.88s WALL (     682 calls)
 
     PWSCF        :   3m20.99s CPU   3m24.49s WALL

 
   This run was terminated on:   8:38:35   5Jan2024            

=------------------------------------------------------------------------------=
   JOB DONE.
=------------------------------------------------------------------------------=
