<preamble>

<basis_specs>
===============================================================================
Ar                   Z=  18    Mass=  39.950        Charge= 0.17977+309
Lmxo=2 Lmxkb= 2    BasisType=split      Semic=F
L=0  Nsemic=0  Cnfigmx=3
          i=1  nzeta=2  polorb=0  (3s)
            splnorm:   0.15000    
               vcte:    40.000    
               rinn:    3.6620    
               qcoe:    0.0000    
               qyuk:    0.0000    
               qwid:   0.10000E-01
                rcs:    4.0648      2.6593    
            lambdas:    1.0000      1.0000    
L=1  Nsemic=0  Cnfigmx=3
          i=1  nzeta=2  polorb=1  (3p)  (to be polarized perturbatively)
            splnorm:   0.15000    
               vcte:    40.000    
               rinn:    4.4973    
               qcoe:    0.0000    
               qyuk:    0.0000    
               qwid:   0.10000E-01
                rcs:    4.9970      3.2897    
            lambdas:    1.0000      1.0000    
L=2  Nsemic=0  Cnfigmx=3
          i=1  nzeta=0  polorb=0  (3d)  (perturbative polarization orbital) (from 3p)
-------------------------------------------------------------------------------
L=0  Nkbl=1  erefs: 0.17977+309
L=1  Nkbl=1  erefs: 0.17977+309
L=2  Nkbl=1  erefs: 0.17977+309
===============================================================================
</basis_specs>

<pseudopotential_header>
 Ar pw nrl pcec
 ONCVPSP-3.2018-03-09Hamann's oncvpsp                        
 3s 2.00  r= 1.56/3p 6.00  r= 1.56/3d 0.00  r= 1.56/                    3s:3p:
</pseudopotential_header>
</preamble>
Ar                            # Symbol
Ar                            # Label
   18                         # Atomic number
     8.00000000000                             # Valence charge
     39.9500000000        # Mass 
     66.6897256580        # Self energy 
   2   5                      # Lmax for basis, no. of nl orbitals 
   2   6                      # Lmax for projectors, no. of nl KB projectors
# PAOs:__________________________
  0  3  1  0  2.000000   #orbital l, n, z, is_polarized, population
 500    0.8145958322122273E-02     4.064833202739014     # npts, delta, cutoff
     0.000000000000000        0.1604283331161130    
    0.8145958322122273E-02    0.1606038029905100    
    0.1629191664424455E-01    0.1611364247401126    
    0.2443787496636682E-01    0.1620234840321384    
    0.3258383328848909E-01    0.1632640131258391    
    0.4072979161061137E-01    0.1648566599081907    
    0.4887574993273364E-01    0.1667996893881594    
    0.5702170825485591E-01    0.1690909861119898    
    0.6516766657697819E-01    0.1717280571667155    
    0.7331362489910045E-01    0.1747080357298915    
    0.8145958322122274E-01    0.1780276851517728    
    0.8960554154334500E-01    0.1816834035605180    
    0.9775149986546727E-01    0.1856712289814107    
    0.1058974581875896        0.1899868449606024    
    0.1140434165097118        0.1946255866831395    
    0.1221893748318341        0.1995824475742626    
    0.1303353331539564        0.2048520863721437    
    0.1384812914760787        0.2104288346594522    
    0.1466272497982009        0.2163067048403576    
    0.1547732081203232        0.2224793985488421    
    0.1629191664424455        0.2289403154734683    
    0.1710651247645677        0.2356825625830626    
    0.1792110830866900        0.2426989637371129    
    0.1873570414088123        0.2499820696640510    
    0.1955029997309345        0.2575241682900047    
    0.2036489580530568        0.2653172954000295    
    0.2117949163751791        0.2733532456133312    
    0.2199408746973014        0.2816235836534813    
    0.2280868330194236        0.2901196558942015    
    0.2362327913415459        0.2988326021608743    
    0.2443787496636682        0.3077533677675794    
    0.2525247079857905        0.3168727157691211    
    0.2606706663079127        0.3261812394072334    
    0.2688166246300350        0.3356693747299112    
    0.2769625829521573        0.3453274133626065    
    0.2851085412742796        0.3551455154098797    
    0.2932544995964018        0.3651137224659800    
    0.3014004579185241        0.3752219707127508    
    0.3095464162406464        0.3854601040832399    
    0.3176923745627687        0.3958178874693874    
    0.3258383328848909        0.4062850199522407    
    0.3339842912070132        0.4168511480332240    
    0.3421302495291355        0.4275058788451356    
    0.3502762078512577        0.4382387933217240    
    0.3584221661733800        0.4490394593049084    
    0.3665681244955023        0.4598974445689681    
    0.3747140828176246        0.4708023297413154    
    0.3828600411397469        0.4817437210998023    
    0.3910059994618691        0.4927112632268842    
    0.3991519577839914        0.5036946515013521    
    0.4072979161061137        0.5146836444087972    
    0.4154438744282359        0.5256680756524416    
    0.4235898327503582        0.5366378660464578    
    0.4317357910724805        0.5475830351744445    
    0.4398817493946028        0.5584937127962962    
    0.4480277077167250        0.5693601499872594    
    0.4561736660388473        0.5801727299936369    
    0.4643196243609696        0.5909219787901889    
    0.4724655826830919        0.6015985753249901    
    0.4806115410052141        0.6121933614381544    
    0.4887574993273364        0.6226973514415673    
    0.4969034576494586        0.6331017413474765    
    0.5050494159715809        0.6433979177345527    
    0.5131953742937032        0.6535774662407687    
    0.5213413326158255        0.6636321796732365    
    0.5294872909379478        0.6735540657259101    
    0.5376332492600701        0.6833353542968776    
    0.5457792075821923        0.6929685043977444    
    0.5539251659043146        0.7024462106484370    
    0.5620711242264369        0.7117614093515832    
    0.5702170825485592        0.7209072841414079    
    0.5783630408706814        0.7298772712029558    
    0.5865089991928036        0.7386650640582300    
    0.5946549575149259        0.7472646179166964    
    0.6028009158370482        0.7556701535883834    
    0.6109468741591705        0.7638761609586645    
    0.6190928324812928        0.7718774020245881    
    0.6272387908034150        0.7796689134934245    
    0.6353847491255373        0.7872460089449168    
    0.6435307074476596        0.7946042805594665    
    0.6516766657697819        0.8017396004152909    
    0.6598226240919042        0.8086481213583192    
    0.6679685824140265        0.8153262774493378    
    0.6761145407361487        0.8217707839936519    
    0.6842604990582709        0.8279786371591741    
    0.6924064573803932        0.8339471131896176    
    0.7005524157025155        0.8396737672200612    
    0.7086983740246378        0.8451564317028593    
    0.7168443323467600        0.8503932144524607    
    0.7249902906688823        0.8553824963183017    
    0.7331362489910046        0.8601229284955282    
    0.7412822073131269        0.8646134294838441    
    0.7494281656352492        0.8688531817052838    
    0.7575741239573714        0.8728416277922303    
    0.7657200822794937        0.8765784665574503    
    0.7738660406016160        0.8800636486583535    
    0.7820119989237382        0.8832973719680841    
    0.7901579572458605        0.8862800766664400    
    0.7983039155679827        0.8890124400639419    
    0.8064498738901050        0.8914953711727026    
    0.8145958322122273        0.8937300050380018    
    0.8227417905343496        0.8957176968447400    
    0.8308877488564719        0.8974600158131538    
    0.8390337071785942        0.8989587388983357    
    0.8471796655007164        0.9002158443082620    
    0.8553256238228387        0.9012335048551592    
    0.8634715821449610        0.9020140811550749    
    0.8716175404670833        0.9025601146906133    
    0.8797634987892056        0.9028743207517744    
    0.8879094571113277        0.9029595812698240    
    0.8960554154334500        0.9028189375590659    
    0.9042013737555723        0.9024555829813189    
    0.9123473320776946        0.9018728555477414    
    0.9204932903998169        0.9010742304725521    
    0.9286392487219391        0.9000633126929586    
    0.9367852070440614        0.8988438293694364    
    0.9449311653661837        0.8974196223802503    
    0.9530771236883060        0.8957946408238261    
    0.9612230820104283        0.8939729335423033    
    0.9693690403325506        0.8919586416792743    
    0.9775149986546728        0.8897559912843621    
    0.9856609569767951        0.8873692859769206    
    0.9938069152989173        0.8848028996807465    
     1.001952873621040        0.8820612694412803    
     1.010098831943162        0.8791488883363232    
     1.018244790265284        0.8760702984908600    
     1.026390748587406        0.8728300842060871    
     1.034536706909529        0.8694328651729964    
     1.042682665231651        0.8658832934386202    
     1.050828623553773        0.8621860364492436    
     1.058974581875896        0.8583457810350552    
     1.067120540198018        0.8543672239560813    
     1.075266498520140        0.8502550658236500    
     1.083412456842262        0.8460140052690744    
     1.091558415164385        0.8416487332887269    
     1.099704373486507        0.8371639277708219    
     1.107850331808629        0.8325642482086326    
     1.115996290130751        0.8278543306043308    
     1.124142248452874        0.8230387825670552    
     1.132288206774996        0.8181221786082763    
     1.140434165097118        0.8131090556369447    
     1.148580123419241        0.8080039086563942    
     1.156726081741363        0.8028111866643993    
     1.164872040063485        0.7975352887572958    
     1.173017998385607        0.7921805604385126    
     1.181163956707730        0.7867512901313930    
     1.189309915029852        0.7812517058956726    
     1.197455873351974        0.7756859723465135    
     1.205601831674096        0.7700581877745324    
     1.213747789996219        0.7643723814648179    
     1.221893748318341        0.7586325112125142    
     1.230039706640463        0.7528424610321401    
     1.238185664962586        0.7470060390574415    
     1.246331623284708        0.7411269756281983    
     1.254477581606830        0.7352089215600938    
     1.262623539928952        0.7292554465934173    
     1.270769498251075        0.7232700380161016    
     1.278915456573197        0.7172560994563207    
     1.287061414895319        0.7112169498396377    
     1.295207373217441        0.7051558225054771    
     1.303353331539564        0.6990758644775109    
     1.311499289861686        0.6929801358823786    
     1.319645248183808        0.6868716095110314    
     1.327791206505931        0.6807531705168736    
     1.335937164828053        0.6746276162447873    
     1.344083123150175        0.6684976561850776    
     1.352229081472297        0.6623659120463193    
     1.360375039794420        0.6562349178328893    
     1.368520998116542        0.6501071182772854    
     1.376666956438664        0.6439848717734417    
     1.384812914760786        0.6378704508773022    
     1.392958873082909        0.6317660423375058    
     1.401104831405031        0.6256737477562928    
     1.409250789727153        0.6195955843279952    
     1.417396748049276        0.6135334856498201    
     1.425542706371398        0.6074893025996149    
     1.433688664693520        0.6014648042754577    
     1.441834623015642        0.5954616789921103    
     1.449980581337765        0.5894815353295737    
     1.458126539659887        0.5835259032291864    
     1.466272497982009        0.5775962351329603    
     1.474418456304131        0.5716939071620387    
     1.482564414626254        0.5658202203304473    
     1.490710372948376        0.5599764017905311    
     1.498856331270498        0.5541636061067324    
     1.507002289592621        0.5483829165546266    
     1.515148247914743        0.5426353464321699    
     1.523294206236865        0.5369218403493741    
     1.531440164558987        0.5312432757568235    
     1.539586122881110        0.5256004645874349    
     1.547732081203232        0.5199941539887108    
     1.555878039525354        0.5144250267481323    
     1.564023997847476        0.5088937038349337    
     1.572169956169599        0.5034007498747946    
     1.580315914491721        0.4979466797705001    
     1.588461872813843        0.4925319659560186    
     1.596607831135965        0.4871570447619010    
     1.604753789458088        0.4818223190568319    
     1.612899747780210        0.4765281582553731    
     1.621045706102332        0.4712748986415453    
     1.629191664424455        0.4660628449563819    
     1.637337622746577        0.4608922719245148    
     1.645483581068699        0.4557634254117560    
     1.653629539390822        0.4506765235454889    
     1.661775497712944        0.4456317578322576    
     1.669921456035066        0.4406292942428062    
     1.678067414357188        0.4356692742590051    
     1.686213372679310        0.4307518158857896    
     1.694359331001433        0.4258770146292062    
     1.702505289323555        0.4210449444415607    
     1.710651247645677        0.4162556586346469    
     1.718797205967800        0.4115091907620115    
     1.726943164289922        0.4068055554711784    
     1.735089122612044        0.4021447493267497    
     1.743235080934167        0.3975267516052488    
     1.751381039256289        0.3929515250625816    
     1.759526997578411        0.3884190166749429    
     1.767672955900533        0.3839291583539897    
     1.775818914222655        0.3794818676370711    
     1.783964872544778        0.3750770483532846    
     1.792110830866900        0.3707145912661232    
     1.800256789189022        0.3663943746934283    
     1.808402747511145        0.3621162651053697    
     1.816548705833267        0.3578801177011399    
     1.824694664155389        0.3536857769650414    
     1.832840622477512        0.3495330772026103    
     1.840986580799634        0.3454218430574175    
     1.849132539121756        0.3413518900091692    
     1.857278497443878        0.3373230248536931    
     1.865424455766001        0.3333350461654049    
     1.873570414088123        0.3293877447428161    
     1.881716372410245        0.3254809040376276    
     1.889862330732367        0.3216143005679503    
     1.898008289054490        0.3177877043161666    
     1.906154247376612        0.3140008791119277    
     1.914300205698734        0.3102535830007887    
     1.922446164020857        0.3065455685989408    
     1.930592122342979        0.3028765834345049    
     1.938738080665101        0.2992463702758327    
     1.946884038987223        0.2956546674472415    
     1.955029997309346        0.2921012091326073    
     1.963175955631468        0.2885857256672160    
     1.971321913953590        0.2851079438182693    
     1.979467872275712        0.2816675870544262    
     1.987613830597835        0.2782643758047462    
     1.995759788919957        0.2748980277073987    
     2.003905747242079        0.2715682578484760    
     2.012051705564201        0.2682747789912573    
     2.020197663886324        0.2650173017962364    
     2.028343622208446        0.2617955350322437    
     2.036489580530568        0.2586091857789494    
     2.044635538852690        0.2554579596210658    
     2.052781497174813        0.2523415608345099    
     2.060927455496935        0.2492596925648309    
     2.069073413819058        0.2462120569981439    
     2.077219372141180        0.2431983555248558    
     2.085365330463302        0.2402182888964109    
     2.093511288785424        0.2372715573753216    
     2.101657247107546        0.2343578608787017    
     2.109803205429669        0.2314768991155440    
     2.117949163751791        0.2286283717179549    
     2.126095122073913        0.2258119783665622    
     2.134241080396035        0.2230274189103058    
     2.142387038718158        0.2202743934808030    
     2.150532997040280        0.2175526026014943    
     2.158678955362403        0.2148617472917428    
     2.166824913684525        0.2122015291660801    
     2.174970872006647        0.2095716505287666    
     2.183116830328769        0.2069718144638368    
     2.191262788650891        0.2044017249207982    
     2.199408746973014        0.2018610867961311    
     2.207554705295136        0.1993496060107572    
     2.215700663617258        0.1968669895836094    
     2.223846621939380        0.1944129457014586    
     2.231992580261503        0.1919871837851286    
     2.240138538583625        0.1895894145522333    
     2.248284496905748        0.1872193500765681    
     2.256430455227870        0.1848767038442797    
     2.264576413549992        0.1825611908069296    
     2.272722371872114        0.1802725274315770    
     2.280868330194237        0.1780104317479878    
     2.289014288516359        0.1757746233930746    
     2.297160246838481        0.1735648236526854    
     2.305306205160603        0.1713807555008291    
     2.313452163482725        0.1692221436364425    
     2.321598121804848        0.1670887145177940    
     2.329744080126970        0.1649801963946139    
     2.337890038449093        0.1628963193380370    
     2.346035996771215        0.1608368152684481    
     2.354181955093337        0.1588014179813104    
     2.362327913415459        0.1567898631710529    
     2.370473871737582        0.1548018884531000    
     2.378619830059704        0.1528372333841126    
     2.386765788381826        0.1508956394805138    
     2.394911746703948        0.1489768502353683    
     2.403057705026070        0.1470806111336816    
     2.411203663348193        0.1452066696661861    
     2.419349621670315        0.1433547753416699    
     2.427495579992438        0.1415246796979143    
     2.435641538314560        0.1397161363112966    
     2.443787496636682        0.1379289008051112    
     2.451933454958804        0.1361627308566659    
     2.460079413280927        0.1344173862032015    
     2.468225371603049        0.1326926286466908    
     2.476371329925171        0.1309882220575591    
     2.484517288247293        0.1293039323773755    
     2.492663246569416        0.1276395276205604    
     2.500809204891538        0.1259947778751524    
     2.508955163213660        0.1243694553026734    
     2.517101121535783        0.1227633341371369    
     2.525247079857905        0.1211761906832345    
     2.533393038180027        0.1196078033137389    
     2.541538996502149        0.1180579524661619    
     2.549684954824272        0.1165264206386975    
     2.557830913146394        0.1150129923854871    
     2.565976871468516        0.1135174543112388    
     2.574122829790638        0.1120395950652295    
     2.582268788112761        0.1105792053347238    
     2.590414746434883        0.1091360778378321    
     2.598560704757005        0.1077100073158432    
     2.606706663079128        0.1063007905250523    
     2.614852621401250        0.1049082262281135    
     2.622998579723372        0.1035321151849391    
     2.631144538045494        0.1021722601431720    
     2.639290496367617        0.1008284658282516    
     2.647436454689739        0.9950053893309886E-01
     2.655582413011861        0.9818828810743514E-01
     2.663728371333983        0.9689152394676487E-01
     2.671874329656106        0.9561005898103282E-01
     2.680020287978228        0.9434370766297956E-01
     2.688166246300350        0.9309228635621297E-01
     2.696312204622473        0.9185561332301086E-01
     2.704458162944595        0.9063350871187455E-01
     2.712604121266717        0.8942579454484791E-01
     2.720750079588839        0.8823229470461728E-01
     2.728896037910962        0.8705283492140772E-01
     2.737041996233084        0.8588724275969027E-01
     2.745187954555206        0.8473534760471182E-01
     2.753333912877328        0.8359698064886546E-01
     2.761479871199451        0.8247197487790751E-01
     2.769625829521573        0.8136016505703966E-01
     2.777771787843695        0.8026138771686450E-01
     2.785917746165818        0.7917548113922451E-01
     2.794063704487940        0.7810228534293888E-01
     2.802209662810062        0.7704164206944494E-01
     2.810355621132184        0.7599339476835687E-01
     2.818501579454307        0.7495738858294715E-01
     2.826647537776429        0.7393347033557063E-01
     2.834793496098551        0.7292148851303119E-01
     2.842939454420673        0.7192129325189051E-01
     2.851085412742796        0.7093273632374129E-01
     2.859231371064918        0.6995567112044762E-01
     2.867377329387040        0.6898995263935939E-01
     2.875523287709163        0.6803543746851105E-01
     2.883669246031285        0.6709198377180764E-01
     2.891815204353407        0.6615945127420696E-01
     2.899961162675529        0.6523770124689882E-01
     2.908107120997652        0.6432659649249334E-01
     2.916253079319774        0.6342600133022018E-01
     2.924399037641896        0.6253578158114503E-01
     2.932544995964018        0.6165580455340881E-01
     2.940690954286141        0.6078593902749491E-01
     2.948836912608263        0.5992605524152774E-01
     2.956982870930385        0.5907602487660618E-01
     2.965128829252508        0.5823572104217939E-01
     2.973274787574630        0.5740501826146639E-01
     2.981420745896752        0.5658379245692163E-01
     2.989566704218874        0.5577192093575472E-01
     2.997712662540997        0.5496928237550425E-01
     3.005858620863119        0.5417575680966840E-01
     3.014004579185241        0.5339122561339815E-01
     3.022150537507363        0.5261557148925525E-01
     3.030296495829486        0.5184867845303372E-01
     3.038442454151608        0.5109043181965395E-01
     3.046588412473730        0.5034071818912728E-01
     3.054734370795853        0.4959942543259325E-01
     3.062880329117975        0.4886644267843498E-01
     3.071026287440097        0.4814166029847198E-01
     3.079172245762219        0.4742496989423161E-01
     3.087318204084342        0.4671626428330367E-01
     3.095464162406464        0.4601543748577914E-01
     3.103610120728586        0.4532238471077086E-01
     3.111756079050708        0.4463700234302352E-01
     3.119902037372831        0.4395918792961044E-01
     3.128047995694953        0.4328884016671804E-01
     3.136193954017075        0.4262585888652200E-01
     3.144339912339198        0.4197014504415379E-01
     3.152485870661320        0.4132160070475902E-01
     3.160631828983442        0.4068012903064899E-01
     3.168777787305564        0.4004563426854630E-01
     3.176923745627687        0.3941802173692392E-01
     3.185069703949809        0.3879719781344069E-01
     3.193215662271931        0.3818306992247087E-01
     3.201361620594053        0.3757554652273147E-01
     3.209507578916176        0.3697453709500495E-01
     3.217653537238298        0.3637995212995949E-01
     3.225799495560420        0.3579170311606678E-01
     3.233945453882543        0.3520970252761621E-01
     3.242091412204665        0.3463386381282848E-01
     3.250237370526787        0.3406410138206602E-01
     3.258383328848909        0.3350033059614152E-01
     3.266529287171032        0.3294246775472518E-01
     3.274675245493154        0.3239043008484931E-01
     3.282821203815276        0.3184413572951112E-01
     3.290967162137398        0.3130350373637455E-01
     3.299113120459521        0.3076845404656821E-01
     3.307259078781643        0.3023890748358231E-01
     3.315405037103765        0.2971478574226323E-01
     3.323550995425887        0.2919601137790402E-01
     3.331696953748010        0.2868250779543378E-01
     3.339842912070132        0.2817419923870233E-01
     3.347988870392254        0.2767101077986221E-01
     3.356134828714377        0.2717286830884630E-01
     3.364280787036499        0.2667969852294130E-01
     3.372426745358621        0.2619142891645689E-01
     3.380572703680743        0.2570798777048870E-01
     3.388718662002866        0.2522930414277710E-01
     3.396864620324988        0.2475530785765939E-01
     3.405010578647110        0.2428592949611466E-01
     3.413156536969232        0.2382110038590310E-01
     3.421302495291355        0.2336075259179647E-01
     3.429448453613477        0.2290481890590125E-01
     3.437594411935599        0.2245323283807265E-01
     3.445740370257722        0.2200592860641929E-01
     3.453886328579844        0.2156284112789879E-01
     3.462032286901966        0.2112390600900154E-01
     3.470178245224088        0.2068905953652434E-01
     3.478324203546211        0.2025823866843271E-01
     3.486470161868333        0.1983138102480892E-01
     3.494616120190455        0.1940842487888937E-01
     3.502762078512577        0.1898930914818611E-01
     3.510908036834700        0.1857397338569526E-01
     3.519053995156822        0.1816235777118995E-01
     3.527199953478944        0.1775440310259702E-01
     3.535345911801067        0.1735005078745813E-01
     3.543491870123189        0.1694924283447258E-01
     3.551637828445311        0.1655192184512310E-01
     3.559783786767433        0.1615803100538223E-01
     3.567929745089556        0.1576751407749970E-01
     3.576075703411678        0.1538031539186967E-01
     3.584221661733800        0.1499637983897655E-01
     3.592367620055922        0.1461565286142021E-01
     3.600513578378045        0.1423808044601755E-01
     3.608659536700167        0.1386360911598199E-01
     3.616805495022289        0.1349218592317838E-01
     3.624951453344412        0.1312375844045351E-01
     3.633097411666534        0.1275827475404117E-01
     3.641243369988656        0.1239568345604126E-01
     3.649389328310778        0.1203593363697108E-01
     3.657535286632901        0.1167897487839017E-01
     3.665681244955023        0.1132475724559587E-01
     3.673827203277145        0.1097323128038963E-01
     3.681973161599267        0.1062434799391418E-01
     3.690119119921390        0.1027805886113228E-01
     3.698265078243512        0.9934315903750036E-02
     3.706411036565634        0.9593072778597101E-02
     3.714556994887757        0.9254289590367670E-02
     3.722702953209879        0.8917943433220464E-02
     3.730848911532001        0.8584042637880891E-02
     3.738994869854123        0.8252640331863237E-02
     3.747140828176246        0.7923843877700917E-02
     3.755286786498368        0.7597818906956674E-02
     3.763432744820490        0.7274788316911212E-02
     3.771578703142612        0.6955027380640054E-02
     3.779724661464735        0.6638856282233698E-02
     3.787870619786857        0.6326631234917106E-02
     3.796016578108979        0.6018735078420931E-02
     3.804162536431102        0.5715567990052144E-02
     3.812308494753224        0.5417538724245590E-02
     3.820454453075346        0.5125056627578417E-02
     3.828600411397468        0.4838524555602326E-02
     3.836746369719591        0.4558332735166759E-02
     3.844892328041713        0.4284853561713667E-02
     3.853038286363835        0.4018437287328373E-02
     3.861184244685957        0.3759408535876706E-02
     3.869330203008080        0.3508063571745343E-02
     3.877476161330202        0.3264668245214025E-02
     3.885622119652324        0.3029456538012230E-02
     3.893768077974447        0.2802629635553099E-02
     3.901914036296569        0.2584355456596614E-02
     3.910059994618691        0.2374768575946920E-02
     3.918205952940813        0.2173970480712249E-02
     3.926351911262936        0.1982030105306075E-02
     3.934497869585058        0.1798984594438331E-02
     3.942643827907180        0.1624840246572970E-02
     3.950789786229302        0.1459573592357873E-02
     3.958935744551425        0.1303132562882047E-02
     3.967081702873547        0.1155437700455574E-02
     3.975227661195669        0.1016383358530775E-02
     3.983373619517792        0.8858388247903878E-03
     3.991519577839914        0.7636492774008069E-03
     3.999665536162036        0.6496364391084533E-03
     4.007811494484159        0.5435987064488938E-03
     4.015957452806281        0.4453103547394987E-03
     4.024103411128403        0.3545190378870347E-03
     4.032249369450525        0.2709398967630118E-03
     4.040395327772647        0.1942421613905759E-03
     4.048541286094770        0.1240163308663531E-03
     4.056687244416892        0.5967681559410015E-04
     4.064833202739014         0.000000000000000    
  0  3  2  0  0.000000   #orbital l, n, z, is_polarized, population
 500    0.5329330991200154E-02     2.659336164608877     # npts, delta, cutoff
     0.000000000000000       -0.2634414244660176    
    0.5329330991200154E-02   -0.2633092195905149    
    0.1065866198240031E-01   -0.2629013450277269    
    0.1598799297360046E-01   -0.2622217585814799    
    0.2131732396480062E-01   -0.2612707757200875    
    0.2664665495600077E-01   -0.2600488357002617    
    0.3197598594720093E-01   -0.2585565024818818    
    0.3730531693840108E-01   -0.2567944645520641    
    0.4263464792960123E-01   -0.2547635345463332    
    0.4796397892080139E-01   -0.2524646487658421    
    0.5329330991200154E-01   -0.2498988666107536    
    0.5862264090320170E-01   -0.2470673699356123    
    0.6395197189440185E-01   -0.2439714623290043    
    0.6928130288560201E-01   -0.2406125683187666    
    0.7461063387680215E-01   -0.2369922325036491    
    0.7993996486800231E-01   -0.2331121186122547    
    0.8526929585920247E-01   -0.2289740084900547    
    0.9059862685040262E-01   -0.2245798010152971    
    0.9592795784160278E-01   -0.2199315109446703    
    0.1012572888328029       -0.2150312676896226    
    0.1065866198240031       -0.2098813140242861    
    0.1119159508152032       -0.2044840047260043    