<preamble>

<basis_specs>
===============================================================================
C                    Z=   6    Mass=  12.011        Charge= 0.17977+309
Lmxo=2 Lmxkb= 1    BasisType=split      Semic=F
L=0  Nsemic=0  Cnfigmx=2
          i=1  nzeta=2  polorb=0  (2s)
            splnorm:   0.15000    
               vcte:    40.000    
               rinn:    4.3206    
               qcoe:    0.0000    
               qyuk:    0.0000    
               qwid:   0.10000E-01
                rcs:    4.8006      3.1571    
            lambdas:    1.0000      1.0000    
L=1  Nsemic=0  Cnfigmx=2
          i=1  nzeta=2  polorb=1  (2p)  (to be polarized perturbatively)
            splnorm:   0.15000    
               vcte:    40.000    
               rinn:    5.2580    
               qcoe:    0.0000    
               qyuk:    0.0000    
               qwid:   0.10000E-01
                rcs:    5.8423      3.8468    
            lambdas:    1.0000      1.0000    
L=2  Nsemic=0  Cnfigmx=3
          i=1  nzeta=0  polorb=0  (3d)  (perturbative polarization orbital) (from 2p)
-------------------------------------------------------------------------------
L=0  Nkbl=1  erefs: 0.17977+309
L=1  Nkbl=1  erefs: 0.17977+309
===============================================================================
</basis_specs>

<pseudopotential_header>
 C  pw nrl pcec
 ONCVPSP-3.2018-03-09Hamann's oncvpsp                        
 2s 2.00  r= 1.20/2p 2.00  r= 1.26/                                     2s:2p:
</pseudopotential_header>
</preamble>
C                             # Symbol
C                             # Label
    6                         # Atomic number
     4.00000000000                             # Valence charge
     12.0110000000        # Mass 
     20.8291160942        # Self energy 
   2   5                      # Lmax for basis, no. of nl orbitals 
   1   4                      # Lmax for projectors, no. of nl KB projectors
# PAOs:__________________________
  0  2  1  0  2.000000   #orbital l, n, z, is_polarized, population
 500    0.9620517982289760E-02     4.800638473162590     # npts, delta, cutoff
     0.000000000000000        0.3723024720451102    
    0.9620517982289760E-02    0.3724917635497974    
    0.1924103596457952E-01    0.3730667006330678    
    0.2886155394686928E-01    0.3740236934367592    
    0.3848207192915904E-01    0.3753608887364234    
    0.4810258991144880E-01    0.3770756997763566    
    0.5772310789373856E-01    0.3791648127920204    
    0.6734362587602832E-01    0.3816241958417667    
    0.7696414385831808E-01    0.3844491095914623    
    0.8658466184060784E-01    0.3876341199751157    
    0.9620517982289760E-01    0.3911731126763512    
    0.1058256978051874        0.3950593093741147    
    0.1154462157874771        0.3992852856909206    
    0.1250667337697669        0.4038429907763091    
    0.1346872517520566        0.4087237684526303    
    0.1443077697343464        0.4139183798450227    
    0.1539282877166362        0.4194170274125816    
    0.1635488056989259        0.4252093802932480    
    0.1731693236812157        0.4312846008709453    
    0.1827898416635055        0.4376313724699231    
    0.1924103596457952        0.4442379280781978    
    0.2020308776280850        0.4510920799993617    
    0.2116513956103747        0.4581812503299544    
    0.2212719135926645        0.4654925021579366    
    0.2308924315749543        0.4730125713767108    
    0.2405129495572440        0.4807278990084689    
    0.2501334675395337        0.4886246639305083    
    0.2597539855218235        0.4966888158984468    
    0.2693745035041133        0.5049061087610569    
    0.2789950214864030        0.5132621337626259    
    0.2886155394686928        0.5217423528304035    
    0.2982360574509826        0.5303321317467211    
    0.3078565754332723        0.5390167731077938    
    0.3174770934155621        0.5477815489739908    
    0.3270976113978519        0.5566117331194712    
    0.3367181293801416        0.5654926327925024    
    0.3463386473624314        0.5744096199014501    
    0.3559591653447211        0.5833481615454045    
    0.3655796833270109        0.5922938498125314    
    0.3752002013093007        0.6012324307736100    
    0.3848207192915904        0.6101498326027179    
    0.3944412372738802        0.6190321927616561    
    0.4040617552561699        0.6278658841894610    
    0.4136822732384597        0.6366375404431380    
    0.4233027912207494        0.6453340797406245    
    0.4329233092030392        0.6539427278618419    
    0.4425438271853290        0.6624510398685721    
    0.4521643451676187        0.6708469206087073    
    0.4617848631499085        0.6791186439752125    
    0.4714053811321983        0.6872548708948157    
    0.4810258991144880        0.6952446660260614    
    0.4906464170967778        0.7030775131508321    
    0.5002669350790675        0.7107433292478189    
    0.5098874530613573        0.7182324772406243    
    0.5195079710436471        0.7255357774172672    
    0.5291284890259368        0.7326445175217235    
    0.5387490070082266        0.7395504615219251    
    0.5483695249905164        0.7462458570621269    
    0.5579900429728061        0.7527234416109932    
    0.5676105609550959        0.7589764473198980    
    0.5772310789373856        0.7649986046089832    
    0.5868515969196754        0.7707841445013158    
    0.5964721149019652        0.7763277997281650    
    0.6060926328842549        0.7816248046308832    
    0.6157131508665447        0.7866708938871765    
    0.6253336688488345        0.7914623000917058    
    0.6349541868311241        0.7959957502229272    
    0.6445747048134139        0.8002684610299298    
    0.6541952227957037        0.8042781333747036    
    0.6638157407779934        0.8080229455668297    
    0.6734362587602832        0.8115015457290286    
    0.6830567767425729        0.8147130432332810    
    0.6926772947248627        0.8176569992484606    
    0.7022978127071525        0.8203334164415074    
    0.7119183306894422        0.8227427278751607    
    0.7215388486717320        0.8248857851461959    
    0.7311593666540218        0.8267638458089258    
    0.7407798846363115        0.8283785601294951    
    0.7504004026186013        0.8297319572171521    
    0.7600209206008911        0.8308264305793227    
    0.7696414385831808        0.8316647231478222    
    0.7792619565654706        0.8322499118240522    
    0.7888824745477604        0.8325853915914321    
    0.7985029925300501        0.8326748592436634    
    0.8081235105123399        0.8325222967777358    
    0.8177440284946296        0.8321319545007940    
    0.8273645464769194        0.8315083339001512    
    0.8369850644592092        0.8306561703258150    
    0.8466055824414989        0.8295804151019047    
    0.8562261004237887        0.8282862146862366    
    0.8658466184060785        0.8267788982849521    
    0.8754671363883682        0.8250639595404385    
    0.8850876543706580        0.8231470383946129    
    0.8947081723529478        0.8210339036744947    
    0.9043286903352374        0.8187304358314058    
    0.9139492083175272        0.8162426098807309    
    0.9235697262998170        0.8135764785884163    
    0.9331902442821067        0.8107381559494655    
    0.9428107622643965        0.8077338010026687    
    0.9524312802466862        0.8045696020246548    
    0.9620517982289760        0.8012517611450244    
    0.9716723162112658        0.7977864794229234    
    0.9812928341935555        0.7941799424238147    
    0.9909133521758453        0.7904383063335005    
     1.000533870158135        0.7865676857278223    
     1.010154388140425        0.7825741387234816    
     1.019774906122715        0.7784636547890984    
     1.029395424105004        0.7742421456665705    
     1.039015942087294        0.7699154335060318    
     1.048636460069584        0.7654892408678936    
     1.058256978051874        0.7609691814619780    
     1.067877496034163        0.7563607516422824    
     1.077498014016453        0.7516693226731131    
     1.087118531998743        0.7469001337793914    
     1.096739049981033        0.7420582859909785    
     1.106359567963322        0.7371487367878183    
     1.115980085945612        0.7321762955496166    
     1.125600603927902        0.7271456198106619    
     1.135221121910192        0.7220612123172676    
     1.144841639892481        0.7169274188821754    
     1.154462157874771        0.7117484270271608    
     1.164082675857061        0.7065282654019218    
     1.173703193839351        0.7012708039548259    
     1.183323711821640        0.6959797548918217    
     1.192944229803930        0.6906586743666924    
     1.202564747786220        0.6853109644069628    
     1.212185265768510        0.6799398767572147    
     1.221805783750800        0.6745485198219590    
     1.231426301733089        0.6691398673476827    
     1.241046819715379        0.6637167656221523    
     1.250667337697669        0.6582819377415906    
     1.260287855679959        0.6528379879368640    
     1.269908373662248        0.6473874061359620    
     1.279528891644538        0.6419325722068280    
     1.289149409626828        0.6364757600525638    
     1.298769927609118        0.6310191415642498    
     1.308390445591407        0.6255647904299565    
     1.318010963573697        0.6201146858058880    
     1.327631481555987        0.6146707158547914    
     1.337251999538277        0.6092346811565414    
     1.346872517520566        0.6038082979956193    
     1.356493035502856        0.5983932015300055    
     1.366113553485146        0.5929909488458461    
     1.375734071467436        0.5876030219020578    
     1.385354589449725        0.5822308303688947    
     1.394975107432015        0.5768757143643253    
     1.404595625414305        0.5715389470919370    
     1.414216143396595        0.5662217373839352    
     1.423836661378884        0.5609252321526587    
     1.433457179361174        0.5556505187539220    
     1.443077697343464        0.5503986272653596    
     1.452698215325754        0.5451705326828242    
     1.462318733308044        0.5399671570377856    
     1.471939251290333        0.5347893714385632    
     1.481559769272623        0.5296379980381198    
     1.491180287254913        0.5245138119310423    
     1.500800805237203        0.5194175429822435    
     1.510421323219492        0.5143498775898191    
     1.520041841201782        0.5093114603844090    
     1.529662359184072        0.5043028958673302    
     1.539282877166362        0.4993247499896519    
     1.548903395148651        0.4943775516743246    
     1.558523913130941        0.4894617942833833    
     1.568144431113231        0.4845779370321751    
     1.577764949095521        0.4797264063524965    
     1.587385467077810        0.4749075972064521    
     1.597005985060100        0.4701218743527844    
     1.606626503042390        0.4653695735673605    
     1.616247021024680        0.4606510028194384    
     1.625867539006969        0.4559664434052871    
     1.635488056989259        0.4513161510406634    
     1.645108574971549        0.4467003569136116    
     1.654729092953839        0.4421192686989829    
     1.664349610936128        0.4375730715360387    
     1.673970128918418        0.4330619289704379    
     1.683590646900708        0.4285859838618752    
     1.693211164882998        0.4241453592585822    
     1.702831682865288        0.4197401592398656    
     1.712452200847577        0.4153704697278161    
     1.722072718829867        0.4110363592692771    
     1.731693236812157        0.4067378797891253    
     1.741313754794447        0.4024750673158848    
     1.750934272776736        0.3982479426806437    
     1.760554790759026        0.3940565121902297    
     1.770175308741316        0.3899007682755498    
     1.779795826723606        0.3857806901159752    
     1.789416344705896        0.3816962442406194    
     1.799036862688185        0.3776473851073299    
     1.808657380670475        0.3736340556601824    
     1.818277898652765        0.3696561878662391    
     1.827898416635054        0.3657137032323052    
     1.837518934617344        0.3618065133023971    
     1.847139452599634        0.3579345201365999    
     1.856759970581924        0.3540976167719831    
     1.866380488564213        0.3502956876661999    
     1.876001006546503        0.3465286091243986    
     1.885621524528793        0.3427962497100271    
     1.895242042511083        0.3390984706401094    
     1.904862560493372        0.3354351261655421    
     1.914483078475662        0.3318060639369488    
     1.924103596457952        0.3282111253565999    
     1.933724114440242        0.3246501459168993    
     1.943344632422532        0.3211229555259105    
     1.952965150404821        0.3176293788203920    
     1.962585668387111        0.3141692354667771    
     1.972206186369401        0.3107423404505378    
     1.981826704351691        0.3073485043543402    
     1.991447222333980        0.3039875336253936    
     2.001067740316270        0.3006592308323837    
     2.010688258298560        0.2973633949123540    
     2.020308776280850        0.2940998214079030    
     2.029929294263139        0.2908683026950387    
     2.039549812245429        0.2876686282020244    
     2.049170330227719        0.2845005846195475    
     2.058790848210009        0.2813639561025096    
     2.068411366192298        0.2782585244637476    
     2.078031884174588        0.2751840693599745    
     2.087652402156878        0.2721403684702163    
     2.097272920139168        0.2691271976670195    
     2.106893438121458        0.2661443311806853    
     2.116513956103747        0.2631915417567860    
     2.126134474086037        0.2602686008072021    
     2.135754992068327        0.2573752785549190    
     2.145375510050616        0.2545113441728025    
     2.154996028032906        0.2516765659165773    
     2.164616546015196        0.2488707112522177    
     2.174237063997486        0.2460935469779469    
     2.183857581979776        0.2433448393410478    
     2.193478099962066        0.2406243541496751    
     2.203098617944355        0.2379318568798409    
     2.212719135926645        0.2352671127777616    
     2.222339653908934        0.2326298869577273    
     2.231960171891224        0.2300199444956605    
     2.241580689873514        0.2274370505185236    
     2.251201207855804        0.2248809702897229    
     2.260821725838094        0.2223514692906592    
     2.270442243820384        0.2198483132985695    
     2.280062761802673        0.2173712684607882    
     2.289683279784963        0.2149201013655680    
     2.299303797767253        0.2124945791095853    
     2.308924315749542        0.2100944693622495    
     2.318544833731832        0.2077195404269413    
     2.328165351714122        0.2053695612992850    
     2.337785869696412        0.2030443017225791    
     2.347406387678701        0.2007435322404720    
     2.357026905660991        0.1984670242470087    
     2.366647423643281        0.1962145500341249    
     2.376267941625571        0.1939858828367015    
     2.385888459607861        0.1917807968752610    
     2.395508977590150        0.1895990673964006    
     2.405129495572440        0.1874404707110431    
     2.414750013554730        0.1853047842305950    
     2.424370531537019        0.1831917865010808    
     2.433991049519309        0.1811012572353445    
     2.443611567501599        0.1790329773433785    
     2.453232085483889        0.1769867289608646    
     2.462852603466179        0.1749622954759823    
     2.472473121448469        0.1729594615545657    
     2.482093639430758        0.1709780131636607    
     2.491714157413048        0.1690177375935528    
     2.501334675395338        0.1670784234783209    
     2.510955193377627        0.1651598608149772    
     2.520575711359917        0.1632618409812460    
     2.530196229342207        0.1613841567520395    
     2.539816747324497        0.1595266023146774    
     2.549437265306786        0.1576889732829022    
     2.559057783289076        0.1558710667097413    
     2.568678301271366        0.1540726810992555    
     2.578298819253656        0.1522936164172265    
     2.587919337235946        0.1505336741008211    
     2.597539855218235        0.1487926570672738    
     2.607160373200525        0.1470703697216319    
     2.616780891182815        0.1453666179635953    
     2.626401409165104        0.1436812091934941    
     2.636021927147394        0.1420139523174389    
     2.645642445129684        0.1403646577516874    
     2.655262963111974        0.1387331374262356    
     2.664883481094264        0.1371192047876806    
     2.674503999076554        0.1355226748013917    
     2.684124517058843        0.1339433639530156    
     2.693745035041133        0.1323810902493441    
     2.703365553023423        0.1308356732185704    
     2.712986071005712        0.1293069339099630    
     2.722606588988002        0.1277946948929749    
     2.732227106970292        0.1262987802558273    
     2.741847624952582        0.1248190156035807    
     2.751468142934872        0.1233552280557211    
     2.761088660917161        0.1219072462432814    
     2.770709178899451        0.1204749003055220    
     2.780329696881741        0.1190580218861891    
     2.789950214864030        0.1176564441293699    
     2.799570732846320        0.1162700016749668    
     2.809191250828610        0.1148985306538070    
     2.818811768810900        0.1135418686824052    
     2.828432286793189        0.1121998548573961    
     2.838052804775479        0.1108723297496575    
     2.847673322757769        0.1095591353981307    
     2.857293840740059        0.1082601153033644    
     2.866914358722349        0.1069751144207886    
     2.876534876704638        0.1057039791537364    
     2.886155394686928        0.1044465573462256    
     2.895775912669218        0.1032026982755155    
     2.905396430651507        0.1019722526444492    
     2.915016948633797        0.1007550725735940    
     2.924637466616087        0.9955101159319243E-01
     2.934257984598377        0.9835992463493443E-01
     2.943878502580667        0.9718166802356182E-01
     2.953499020562957        0.9601609946831603E-01
     2.963119538545246        0.9486307805423587E-01
     2.972740056527536        0.9372246423331984E-01
     2.982360574509826        0.9259411981555905E-01
     2.991981092492115        0.9147790795984986E-01
     3.001601610474405        0.9037369316479565E-01
     3.011222128456695        0.8928134125940483E-01
     3.020842646438985        0.8820071939369413E-01
     3.030463164421275        0.8713169602920415E-01
     3.040083682403564        0.8607414092943400E-01
     3.049704200385854        0.8502792515020341E-01
     3.059324718368144        0.8399292102994586E-01
     3.068945236350434        0.8296900217994362E-01
     3.078565754332723        0.8195604347450751E-01
     3.088186272315013        0.8095392104110737E-01
     3.097806790297303        0.7996251225046247E-01
     3.107427308279592        0.7898169570659086E-01
     3.117047826261882        0.7801135123682974E-01
     3.126668344244172        0.7705135988182721E-01
     3.136288862226462        0.7610160388551244E-01
     3.145909380208752        0.7516196668504729E-01
     3.155529898191042        0.7423233290076511E-01
     3.165150416173331        0.7331258832610008E-01
     3.174770934155621        0.7240261991751190E-01
     3.184391452137911        0.7150231578440797E-01
     3.194011970120200        0.7061156517906937E-01
     3.203632488102490        0.6973025848658157E-01
     3.213253006084780        0.6885828721477541E-01
     3.222873524067070        0.6799554398417865E-01
     3.232494042049360        0.6714192251798516E-01
     3.242114560031649        0.6629731763204136E-01
     3.251735078013939        0.6546162522485331E-01
     3.261355595996229        0.6463474226761889E-01
     3.270976113978518        0.6381656679428545E-01
     3.280596631960808        0.6300699789163627E-01
     3.290217149943098        0.6220593568940875E-01
     3.299837667925388        0.6141328135044474E-01
     3.309458185907677        0.6062893706087660E-01
     3.319078703889967        0.5985280602035174E-01
     3.328699221872257        0.5908479243229395E-01
     3.338319739854547        0.5832480149420716E-01
     3.347940257836837        0.5757273938802221E-01
     3.357560775819126        0.5682851327048631E-01
     3.367181293801416        0.5609203126359918E-01
     3.376801811783706        0.5536320244509612E-01
     3.386422329765995        0.5464193683897953E-01
     3.396042847748285        0.5392814540609968E-01
     3.405663365730575        0.5322174003478711E-01
     3.415283883712865        0.5252263353153651E-01
     3.424904401695155        0.5183073961174395E-01
     3.434524919677445        0.5114597289049778E-01
     3.444145437659734        0.5046824887342478E-01
     3.453765955642024        0.4979748394759264E-01
     3.463386473624314        0.4913359537246754E-01
     3.473006991606603        0.4847650127093074E-01
     3.482627509588893        0.4782612062035305E-01
     3.492248027571183        0.4718237324372639E-01
     3.501868545553473        0.4654517980085666E-01
     3.511489063535763        0.4591446177961549E-01
     3.521109581518052        0.4529014148725223E-01
     3.530730099500342        0.4467214204176714E-01
     3.540350617482632        0.4406038736334533E-01
     3.549971135464922        0.4345480216585289E-01
     3.559591653447211        0.4285531194839417E-01
     3.569212171429501        0.4226184298693172E-01
     3.578832689411791        0.4167432232596868E-01
     3.588453207394080        0.4109267777029352E-01
     3.598073725376370        0.4051683787678788E-01
     3.607694243358660        0.3994673194629730E-01
     3.617314761340950        0.3938229001556508E-01
     3.626935279323240        0.3882344284922935E-01
     3.636555797305530        0.3827012193188355E-01
     3.646176315287819        0.3772225946019997E-01
     3.655796833270109        0.3717978833511688E-01
     3.665417351252399        0.3664264215408875E-01
     3.675037869234688        0.3611075520340006E-01
     3.684658387216978        0.3558406245054208E-01
     3.694278905199268        0.3506249953665266E-01
     3.703899423181558        0.3454600276901962E-01
     3.713519941163848        0.3403450911364662E-01
     3.723140459146137        0.3352795618788172E-01
     3.732760977128427        0.3302628225310932E-01
     3.742381495110717        0.3252942620750343E-01
     3.752002013093006        0.3203732757884411E-01
     3.761622531075296        0.3154992651739599E-01
     3.771243049057586        0.3106716378884758E-01
     3.780863567039876        0.3058898076731346E-01
     3.790484085022165        0.3011531942839750E-01
     3.800104603004455        0.2964612234231643E-01
     3.809725120986745        0.2918133266708499E-01
     3.819345638969035        0.2872089414176184E-01
     3.828966156951325        0.2826475107975457E-01
     3.838586674933614        0.2781284836218609E-01
     3.848207192915904        0.2736513143131946E-01
     3.857827710898194        0.2692154628404260E-01
     3.867448228880483        0.2648203946541196E-01
     3.877068746862773        0.2604655806225459E-01
     3.886689264845063        0.2561504969682851E-01
     3.896309782827353        0.2518746252054144E-01
     3.905930300809643        0.2476374520772604E-01
     3.915550818791933        0.2434384694947366E-01
     3.925171336774222        0.2392771744752378E-01
     3.934791854756512        0.2351530690821007E-01
     3.944412372738802        0.2310656603646357E-01
     3.954032890721091        0.2270144602986957E-01
     3.963653408703381        0.2229989857278124E-01
     3.973273926685671        0.2190187583048762E-01
     3.982894444667961        0.2150733044343584E-01
     3.992514962650251        0.2111621552150755E-01
     4.002135480632540        0.2072848463834882E-01
     4.011755998614830        0.2034409182575335E-01
     4.021376516597120        0.1996299156809834E-01
     4.030997034579410        0.1958513879683228E-01
     4.040617552561700        0.1921048888501598E-01
     4.050238070543989        0.1883899764191301E-01
     4.059858588526279        0.1847062130763310E-01
     4.069479106508568        0.1810531654782496E-01
     4.079099624490858        0.1774304044841987E-01
     4.088720142473148        0.1738375051042469E-01
     4.098340660455438        0.1702740464476414E-01
     4.107961178437727        0.1667396116717250E-01
     4.117581696420017        0.1632337879313260E-01
     4.127202214402307        0.1597561663286453E-01
     4.136822732384597        0.1563063418635985E-01
     4.146443250366887        0.1528839133846453E-01
     4.156063768349177        0.1494884835400817E-01
     4.165684286331466        0.1461196587297880E-01
     4.175304804313756        0.1427770490574417E-01
     4.184925322296046        0.1394602682831809E-01
     4.194545840278336        0.1361689337767217E-01
     4.204166358260625        0.1329026664709094E-01
     4.213786876242915        0.1296610908157235E-01
     4.223407394225204        0.1264438347327115E-01
     4.233027912207494        0.1232505295698526E-01
     4.242648430189784        0.1200808100568564E-01
     4.252268948172074        0.1169343142608761E-01
     4.261889466154364        0.1138106835426483E-01
     4.271509984136654        0.1107095625130393E-01
     4.281130502118943        0.1076305989900096E-01
     4.290751020101233        0.1045734439559800E-01
     4.300371538083523        0.1015377515155987E-01
     4.309992056065813        0.9852317885390859E-02
     4.319612574048103        0.9552938619490393E-02
     4.329233092030393        0.9255603676048369E-02
     4.338853610012682        0.8960279672977413E-02
     4.348474127994971        0.8666933519948109E-02
     4.358094645977261        0.8375532426684398E-02
     4.367715163959551        0.8086044218466037E-02
     4.377335681941841        0.7798439667080367E-02
     4.386956199924131        0.7512699723239206E-02
     4.396576717906420        0.7228827934770905E-02
     4.406197235888710        0.6946864539178630E-02
     4.415817753871000        0.6666898033608632E-02
     4.425438271853290        0.6389071815600239E-02
     4.435058789835580        0.6113585501493773E-02
     4.444679307817869        0.5840691752477362E-02
     4.454299825800159        0.5570689884810248E-02
     4.463920343782449        0.5303917520557382E-02
     4.473540861764739        0.5040741313138207E-02
     4.483161379747028        0.4781547513452410E-02
     4.492781897729318        0.4526732898937032E-02
     4.502402415711607        0.4276696393539052E-02
     4.512022933693897        0.4031831562468269E-02
     4.521643451676187        0.3792520064181653E-02
     4.531263969658477        0.3559126073778088E-02
     4.540884487640767        0.3331991648091172E-02
     4.550505005623057        0.3111432976145494E-02
     4.560125523605346        0.2897737443920668E-02
     4.569746041587636        0.2691161435612652E-02
     4.579366559569926        0.2491928792026277E-02
     4.588987077552216        0.2300229848429726E-02
     4.598607595534506        0.2116220977831880E-02
     4.608228113516796        0.1940024570292816E-02
     4.617848631499085        0.1771729383943637E-02
     4.627469149481374        0.1611391208439422E-02
     4.637089667463664        0.1459033786300372E-02
     4.646710185445954        0.1314649941745818E-02
     4.656330703428244        0.1178202869946701E-02
     4.665951221410534        0.1049627541770619E-02
     4.675571739392823        0.9288321795744461E-03
     4.685192257375113        0.8156997575551458E-03
     4.694812775357403        0.7100894740964940E-03
     4.704433293339693        0.6118381306105044E-03
     4.714053811321983        0.5207613260620460E-03
     4.723674329304273        0.4366543273114781E-03
     4.733294847286562        0.3592923777481825E-03
     4.742915365268852        0.2884300016472350E-03
     4.752535883251142        0.2237983966858526E-03
     4.762156401233431        0.1650988345429792E-03
     4.771776919215721        0.1119865616735627E-03
     4.781397437198011        0.6402775592350135E-04
     4.791017955180300        0.2054207636578738E-04
     4.800638473162590         0.000000000000000    
  0  2  2  0  0.000000   #orbital l, n, z, is_polarized, population
 500    0.6326939209093247E-02     3.157142665337530     # npts, delta, cutoff
     0.000000000000000        0.2447929867147027    
    0.6326939209093247E-02    0.2449282145476850    
    0.1265387841818649E-01    0.2453461730807606    
    0.1898081762727974E-01    0.2460423886742266    
    0.2530775683637299E-01    0.2470162806840232    
    0.3163469604546624E-01    0.2482670391159549    
    0.3796163525455949E-01    0.2497936244779378    
    0.4428857446365273E-01    0.2515947688336169    
    0.5061551367274598E-01    0.2536689772374877    
    0.5694245288183922E-01    0.2560145294582217    
    0.6326939209093248E-01    0.2586294819691438    
    0.6959633130002572E-01    0.2615116701976163    
    0.7592327050911897E-01    0.2646587110279860    
    0.8225020971821222E-01    0.2680680055533344    
    0.8857714892730546E-01    0.2717367420712597    
    0.9490408813639871E-01    0.2756618993186778    
    0.1012310273454920        0.2798402499403009    
    0.1075579665545852        0.2842683641851442    
    0.1138849057636784        0.2889426138250517    
    0.1202118449727717        0.2938591762889353    
    0.1265387841818650        0.2990140390060720    
    0.1328657233909582        0.3044030039515227    