<preamble>

<basis_specs>
===============================================================================
Cd                   Z=  48    Mass=  112.41        Charge= 0.17977+309
Lmxo=2 Lmxkb= 2    BasisType=split      Semic=T
L=0  Nsemic=1  Cnfigmx=5
          i=1  nzeta=1  polorb=0  (4s)  (semicore shell)
            splnorm:   0.15000    
               vcte:    40.000    
               rinn:    2.2512    
               qcoe:    0.0000    
               qyuk:    0.0000    
               qwid:   0.10000E-01
                rcs:    2.5014    
            lambdas:    1.0000    
          i=2  nzeta=2  polorb=0  (5s)  (to be polarized non-perturbatively)
            splnorm:   0.15000    
               vcte:    40.000    
               rinn:    6.2341    
               qcoe:    0.0000    
               qyuk:    0.0000    
               qwid:   0.10000E-01
                rcs:    6.9267      4.9224    
            lambdas:    1.0000      1.0000    
L=1  Nsemic=1  Cnfigmx=5
          i=1  nzeta=1  polorb=0  (4p)  (semicore shell)
            splnorm:   0.15000    
               vcte:    40.000    
               rinn:    2.5369    
               qcoe:    0.0000    
               qyuk:    0.0000    
               qwid:   0.10000E-01
                rcs:    2.8159    
            lambdas:    1.0000    
          i=2  nzeta=1  polorb=0  (5p)  (non-perturbative polarization shell)
            splnorm:   0.15000    
               vcte:    40.000    
               rinn:    6.2403    
               qcoe:    0.0000    
               qyuk:    0.0000    
               qwid:   0.10000E-01
                rcs:    6.9267    
            lambdas:    1.0000    
L=2  Nsemic=0  Cnfigmx=4
          i=1  nzeta=2  polorb=0  (4d)
            splnorm:   0.15000    
               vcte:    40.000    
               rinn:    3.8195    
               qcoe:    0.0000    
               qyuk:    0.0000    
               qwid:   0.10000E-01
                rcs:    4.2396      2.6540    
            lambdas:    1.0000      1.0000    
-------------------------------------------------------------------------------
L=0  Nkbl=2  erefs: 0.17977+309 0.17977+309
L=1  Nkbl=2  erefs: 0.17977+309 0.17977+309
L=2  Nkbl=1  erefs: 0.17977+309
===============================================================================
</basis_specs>

<pseudopotential_header>
 Cd pw nrl pcec
 ONCVPSP-3.2018-03-09Hamann's oncvpsp                        
 4s 2.00  r= 1.26/4p 6.00  r= 1.30/4d10.00  r= 1.35/                    4s:4p:4d:5s:
</pseudopotential_header>
</preamble>
Cd                            # Symbol
Cd                            # Label
   48                         # Atomic number
     20.0000000000                             # Valence charge
     112.410000000        # Mass 
     501.370250712        # Self energy 
   2   7                      # Lmax for basis, no. of nl orbitals 
   2   6                      # Lmax for projectors, no. of nl KB projectors
# PAOs:__________________________
  0  4  1  0  2.000000   #orbital l, n, z, is_polarized, population
 500    0.5012772541961106E-02     2.501373498438592     # npts, delta, cutoff
     0.000000000000000        0.5316272359205012    
    0.5012772541961106E-02    0.5318148916851526    
    0.1002554508392221E-01    0.5324307249162726    
    0.1503831762588332E-01    0.5334566205222604    
    0.2005109016784442E-01    0.5348917951658247    
    0.2506386270980553E-01    0.5367351637511993    
    0.3007663525176663E-01    0.5389853345000623    
    0.3508940779372774E-01    0.5416406093532837    
    0.4010218033568885E-01    0.5446989852777556    
    0.4511495287764995E-01    0.5481581559856774    
    0.5012772541961106E-01    0.5520155139662570    
    0.5514049796157217E-01    0.5562681528009097    
    0.6015327050353327E-01    0.5609128697506254    
    0.6516604304549438E-01    0.5659461686094115    
    0.7017881558745548E-01    0.5713642628193807    
    0.7519158812941659E-01    0.5771630788436061    
    0.8020436067137769E-01    0.5833382597929168    
    0.8521713321333879E-01    0.5898851693027238    
    0.9022990575529991E-01    0.5967988956557931    
    0.9524267829726100E-01    0.6040742561466702    
    0.1002554508392221        0.6117058016832302    
    0.1052682233811832        0.6196878216206179    
    0.1102809959231443        0.6280143488225912    
    0.1152937684651054        0.6366791649450746    
    0.1203065410070665        0.6456758059364880    
    0.1253193135490276        0.6549975677492155    
    0.1303320860909888        0.6646375122563428    
    0.1353448586329498        0.6745884733676155    
    0.1403576311749110        0.6848430633383370    
    0.1453704037168721        0.6953936792647435    
    0.1503831762588332        0.7062325097592171    
    0.1553959488007943        0.7173515417984866    
    0.1604087213427554        0.7287425677378270    
    0.1654214938847165        0.7403971924840599    
    0.1704342664266776        0.7523068408200467    
    0.1754470389686387        0.7644627648731657    
    0.1804598115105998        0.7768560517201544    
    0.1854725840525609        0.7894776311205489    
    0.1904853565945220        0.8023182833708317    
    0.1954981291364831        0.8153686472712672    
    0.2005109016784442        0.8286192281973083    
    0.2055236742204053        0.8420604062673595    
    0.2105364467623664        0.8556824445985689    
    0.2155492193043275        0.8694754976422622    
    0.2205619918462887        0.8834296195905482    
    0.2255747643882497        0.8975347728455529    
    0.2305875369302109        0.9117808365427144    
    0.2356003094721720        0.9261576151194775    
    0.2406130820141331        0.9406548469207490    
    0.2456258545560942        0.9552622128324049    
    0.2506386270980553        0.9699693449341458    
    0.2556513996400164        0.9847658351629879    
    0.2606641721819775        0.9996412439786883    
    0.2656769447239386         1.014585109022397    
    0.2706897172658997         1.029586953759890    
    0.2757024898078608         1.044636296100731    
    0.2807152623498219         1.059722656984786    
    0.2857280348917830         1.074835568927560    
    0.2907408074337441         1.089964584515873    
    0.2957535799757052         1.105099284845503    
    0.3007663525176664         1.120229287892487    
    0.3057791250596275         1.135344256809843    
    0.3107918976015885         1.150433908141643    
    0.3158046701435497         1.165488019946412    
    0.3208174426855108         1.180496439821997    
    0.3258302152274719         1.195449092824172    
    0.3308429877694330         1.210335989271364    
    0.3358557603113941         1.225147232428077    
    0.3408685328533552         1.239873026059729    
    0.3458813053953163         1.254503681851759    
    0.3508940779372774         1.269029626686093    
    0.3559068504792385         1.283441409768208    
    0.3609196230211996         1.297729709598231    
    0.3659323955631607         1.311885340779698    
    0.3709451681051218         1.325899260659863    
    0.3759579406470829         1.339762575795569    
    0.3809707131890440         1.353466548239008    
    0.3859834857310052         1.367002601637879    
    0.3909962582729662         1.380362327144675    
    0.3960090308149273         1.393537489130122    
    0.4010218033568885         1.406520030695994    
    0.4060345758988496         1.419302078982802    
    0.4110473484408106         1.431875950268123    
    0.4160601209827718         1.444234154851556    
    0.4210728935247329         1.456369401722621    
    0.4260856660666940         1.468274603008133    
    0.4310984386086551         1.479942878195881    
    0.4361112111506162         1.491367558131731    
    0.4411239836925773         1.502542188787526    
    0.4461367562345384         1.513460534797450    
    0.4511495287764995         1.524116582760837    
    0.4561623013184606         1.534504544309618    
    0.4611750738604217         1.544618858939001    
    0.4661878464023828         1.554454196600127    
    0.4712006189443440         1.564005460053872    
    0.4762133914863050         1.573267786985155    
    0.4812261640282661         1.582236551877432    
    0.4862389365702273         1.590907367647389    
    0.4912517091121884         1.599276087040021    
    0.4962644816541495         1.607338803784720    
    0.5012772541961106         1.615091853513120    
    0.5062900267380717         1.622531814439864    
    0.5113027992800327         1.629655507807616    
    0.5163155718219939         1.636459998098039    
    0.5213283443639550         1.642942593010584    
    0.5263411169059161         1.649100843211354    
    0.5313538894478772         1.654932541854440    
    0.5363666619898383         1.660435723878448    
    0.5413794345317994         1.665608665081194    
    0.5463922070737606         1.670449880975736    
    0.5514049796157217         1.674958125431214    
    0.5564177521576827         1.679132389102150    
    0.5614305246996438         1.682971897650107    
    0.5664432972416049         1.686476109761852    
    0.5714560697835660         1.689644714968324    
    0.5764688423255272         1.692477631268952    
    0.5814816148674883         1.694975002566067    
    0.5864943874094494         1.697137195914305    
    0.5915071599514105         1.698964798590130    
    0.5965199324933715         1.700458614986717    
    0.6015327050353327         1.701619663339662    
    0.6065454775772938         1.702449172289079    
    0.6115582501192549         1.702948577283839    
    0.6165710226612160         1.703119516833810    
    0.6215837952031771         1.702963828616089    
    0.6265965677451382         1.702483545441349    
    0.6316093402870994         1.701680891086499    
    0.6366221128290604         1.700558275999989    
    0.6416348853710215         1.699118292886154    
    0.6466476579129826         1.697363712175070    
    0.6516604304549437         1.695297477384461    
    0.6566732029969049         1.692922700380275    
    0.6616859755388660         1.690242656542563    
    0.6666987480808271         1.687260779843333    
    0.6717115206227882         1.683980657843114    
    0.6767242931647492         1.680406026612940    
    0.6817370657067103         1.676540765588481    
    0.6867498382486715         1.672388892363050    
    0.6917626107906326         1.667954557426235    
    0.6967753833325937         1.663242038854789    
    0.7017881558745548         1.658255736962485    
    0.7068009284165159         1.653000168915536    
    0.7118137009584771         1.647479963320156    
    0.7168264735004382         1.641699854908212    
    0.7218392460423992         1.635664679342246    
    0.7268520185843603         1.629379366271276    
    0.7318647911263214         1.622848935604650    
    0.7368775636682825         1.616078491438047    
    0.7418903362102437         1.609073216606383    
    0.7469031087522048         1.601838367254059    
    0.7519158812941659         1.594379267426997    
    0.7569286538361270         1.586701303692190    
    0.7619414263780880         1.578809919790374    
    0.7669541989200491         1.570710611327278    
    0.7719669714620103         1.562408920508746    
    0.7769797440039714         1.553910430924928    
    0.7819925165459325         1.545220762388519    
    0.7870052890878936         1.536345565831915    
    0.7920180616298547         1.527290518267952    
    0.7970308341718159         1.518061317818755    
    0.8020436067137769         1.508663678817029    
    0.8070563792557380         1.499103326983938    
    0.8120691517976991         1.489385994687593    
    0.8170819243396602         1.479517416285875    
    0.8220946968816213         1.469503323557275    
    0.8271074694235825         1.459349441223103    
    0.8321202419655436         1.449061482564340    
    0.8371330145075047         1.438645145136122    
    0.8421457870494657         1.428106106582733    
    0.8471585595914268         1.417450020555710    
    0.8521713321333880         1.406682512737533    
    0.8571841046753491         1.395809176973137    
    0.8621968772173102         1.384835571511292    
    0.8672096497592713         1.373767215357718    
    0.8722224223012324         1.362609584741589    
    0.8772351948431935         1.351368109696903    
    0.8822479673851547         1.340048170759974    
    0.8872607399271157         1.328655095784155    
    0.8922735124690768         1.317194156872668    
    0.8972862850110379         1.305670567430266    
    0.9022990575529990         1.294089479334245    
    0.9073118300949602         1.282455980225164    
    0.9123246026369213         1.270775090917431    
    0.9173373751788824         1.259051762929774    
    0.9223501477208434         1.247290876135391    
    0.9273629202628045         1.235497236531493    
    0.9323756928047656         1.223675574127687    
    0.9373884653467268         1.211830540952601    
    0.9424012378886879         1.199966709177897    
    0.9474140104306490         1.188088569358764    
    0.9524267829726101         1.176200528789760    
    0.9574395555145712         1.164306909974815    
    0.9624523280565322         1.152411949209998    
    0.9674651005984934         1.140519795277595    
    0.9724778731404545         1.128634508249875    
    0.9774906456824156         1.116760058400839    
    0.9825034182243767         1.104900325224126    
    0.9875161907663378         1.093059096555156    
    0.9925289633082990         1.081240067795485    
    0.9975417358502601         1.069446841237255    
     1.002554508392221         1.057682925485577    
     1.007567280934182         1.045951734976556    
     1.012580053476143         1.034256589588620    
     1.017592826018104         1.022600714344770    
     1.022605598560065         1.010987239203283    
     1.027618371102027        0.9994191989343497    
     1.032631143643988        0.9878995330801132    
     1.037643916185949        0.9764310859955111    
     1.042656688727910        0.9650166069672739    
     1.047669461269871        0.9536587504084683    
     1.052682233811832        0.9423600761258760    
     1.057695006353793        0.9311230496575558    
     1.062707778895754        0.9199500426778697    
     1.067720551437715        0.9088433334672916    
     1.072733323979677        0.8978051074442963    
     1.077746096521638        0.8868374577566451    
     1.082758869063599        0.8759423859294125    
     1.087771641605560        0.8651218025670683    
     1.092784414147521        0.8543775281070124    
     1.097797186689482        0.8437112936219539    
     1.102809959231443        0.8331247416685660    
     1.107822731773404        0.8226194271798837    
     1.112835504315365        0.8121968183989556    
     1.117848276857327        0.8018582978513246    
     1.122861049399288        0.7916051633539121    
     1.127873821941249        0.7814386290580031    
     1.132886594483210        0.7713598265240251    
     1.137899367025171        0.7613698058259085    
     1.142912139567132        0.7514695366828665    
     1.147924912109093        0.7416599096165081    
     1.152937684651054        0.7319417371312552    
     1.157950457193015        0.7223157549161016    
     1.162963229734977        0.7127826230658566    
     1.167976002276938        0.7033429273200391    
     1.172988774818899        0.6939971803177097    
     1.178001547360860        0.6847458228665939    
     1.183014319902821        0.6755892252248927    
     1.188027092444782        0.6665276883943324    
     1.193039864986743        0.6575614454229917    
     1.198052637528704        0.6486906627166177    
     1.203065410070665        0.6399154413571394    
     1.208078182612627        0.6312358184272463    
     1.213090955154588        0.6226517683398751    
     1.218103727696549        0.6141632041440166    
     1.223116500238510        0.6057699787211044    
     1.228129272780471        0.5974718864171326    
     1.233142045322432        0.5892686647357671    
     1.238154817864393        0.5811599960088002    
     1.243167590406354        0.5731455070487717    
     1.248180362948315        0.5652247691725725    
     1.253193135490276        0.5573972996921991    
     1.258205908032238        0.5496625675770130    
     1.263218680574199        0.5420200006655864    
     1.268231453116160        0.5344689935150946    
     1.273244225658121        0.5270089159984461    
     1.278256998200082        0.5196391211779723    
     1.283269770742043        0.5123589516346528    
     1.288282543284004        0.5051677404824961    
     1.293295315825965        0.4980648106783130    
     1.298308088367926        0.4910494736238083    
     1.303320860909887        0.4841210300523252    
     1.308333633451848        0.4772787712373210    
     1.313346405993810        0.4705219801766193    
     1.318359178535771        0.4638499322629446    
     1.323371951077732        0.4572618958634760    
     1.328384723619693        0.4507571329633552    
     1.333397496161654        0.4443348997949418    
     1.338410268703615        0.4379944474458228    
     1.343423041245576        0.4317350224386501    
     1.348435813787537        0.4255558672871434    
     1.353448586329498        0.4194562210291116    
     1.358461358871460        0.4134353197372323    
     1.363474131413421        0.4074923970083451    
     1.368486903955382        0.4016266844319806    
     1.373499676497343        0.3958374120387960    
     1.378512449039304        0.3901238087296278    
     1.383525221581265        0.3844851026857917    
     1.388537994123226        0.3789205217612832    
     1.393550766665187        0.3734292938574942    
     1.398563539207148        0.3680106472810375    
     1.403576311749110        0.3626638110852674    
     1.408589084291071        0.3573880153960692    
     1.413601856833032        0.3521824917224485    
     1.418614629374993        0.3470464732524592    
     1.423627401916954        0.3419791951349891    
     1.428640174458915        0.3369798947478908    
     1.433652947000876        0.3320478119529474    
     1.438665719542837        0.3271821893381490    
     1.443678492084798        0.3223822724477173    
     1.448691264626760        0.3176473100003305    
     1.453704037168721        0.3129765540959689    
     1.458716809710682        0.3083692604117987    
     1.463729582252643        0.3038246883874829    
     1.468742354794604        0.2993421014003166    
     1.473755127336565        0.2949207669305614    
     1.478767899878526        0.2905599567173309    
     1.483780672420487        0.2862589469053861    
     1.488793444962448        0.2820170181831814    
     1.493806217504410        0.2778334559124868    
     1.498818990046371        0.2737075502499010    
     1.503831762588332        0.2696385962605712    
     1.508844535130293        0.2656258940244103    
     1.513857307672254        0.2616687487351063    
     1.518870080214215        0.2577664707921894    
     1.523882852756176        0.2539183758864421    
     1.528895625298137        0.2501237850789030    
     1.533908397840098        0.2463820248737263    
     1.538921170382060        0.2426924272590835    
     1.543933942924021        0.2390543294927924    
     1.548946715465982        0.2354670745866571    
     1.553959488007943        0.2319300112992784    
     1.558972260549904        0.2284424941200828    
     1.563985033091865        0.2250038833097017    
     1.568997805633826        0.2216135449358534    
     1.574010578175787        0.2182708509048210    
     1.579023350717748        0.2149751789887015    
     1.584036123259709        0.2117259128486040    
     1.589048895801670        0.2085224420539779    
     1.594061668343632        0.2053641620982224    
     1.599074440885593        0.2022504744107572    
     1.604087213427554        0.1991807863656908    
     1.609099985969515        0.1961545112872485    
     1.614112758511476        0.1931710684521009    
     1.619125531053437        0.1902298830887263    
     1.624138303595398        0.1873303863739516    
     1.629151076137359        0.1844720154267943    
     1.634163848679320        0.1816542132997327    
     1.639176621221281        0.1788764289675244    
     1.644189393763243        0.1761381173136896    
     1.649202166305204        0.1734387391147705    
     1.654214938847165        0.1707777610224797    
     1.659227711389126        0.1681546555438300    
     1.664240483931087        0.1655689010193608    
     1.669253256473048        0.1630199815995462    
     1.674266029015009        0.1605073872194863    
     1.679278801556970        0.1580306135719618    
     1.684291574098931        0.1555891620789485    
     1.689304346640893        0.1531825398616699    
     1.694317119182854        0.1508102597092657    
     1.699329891724815        0.1484718400461586    
     1.704342664266776        0.1461668048981899    
     1.709355436808737        0.1438946838575979    
     1.714368209350698        0.1416550120469048    
     1.719380981892659        0.1394473300817793    
     1.724393754434620        0.1372711840329412    
     1.729406526976581        0.1351261253871665    
     1.734419299518543        0.1330117110074490    
     1.739432072060504        0.1309275030923810    
     1.744444844602465        0.1288730691348042    
     1.749457617144426        0.1268479818797815    
     1.754470389686387        0.1248518192819422    
     1.759483162228348        0.1228841644622473    
     1.764495934770309        0.1209446056642215    
     1.769508707312270        0.1190327362096968    
     1.774521479854231        0.1171481544541080    
     1.779534252396193        0.1152904637413839    
     1.784547024938154        0.1134592723584708    
     1.789559797480115        0.1116541934895267    
     1.794572570022076        0.1098748451698217    
     1.799585342564037        0.1081208502393813    
     1.804598115105998        0.1063918362963999    
     1.809610887647959        0.1046874356504625    
     1.814623660189920        0.1030072852756024    
     1.819636432731881        0.1013510267632195    
     1.824649205273843        0.9971830627489432E-01
     1.829661977815804        0.9810877449511989E-01
     1.834674750357765        0.9652208658397424E-01
     1.839687522899726        0.9495790212976320E-01
     1.844700295441687        0.9341588510165423E-01
     1.849713067983648        0.9189570380231941E-01
     1.854725840525609        0.9039703082061476E-01
     1.859738613067570        0.8891954298431252E-01
     1.864751385609531        0.8746292131290345E-01
     1.869764158151493        0.8602685097049158E-01
     1.874776930693454        0.8461102121879663E-01
     1.879789703235415        0.8321512537027734E-01
     1.884802475777376        0.8183886074139737E-01
     1.889815248319337        0.8048192860604385E-01
     1.894828020861298        0.7914403414911306E-01
     1.899840793403259        0.7782488642027860E-01
     1.904853565945220        0.7652419828795297E-01
     1.909866338487181        0.7524168639345366E-01
     1.914879111029142        0.7397707110538879E-01
     1.919891883571103        0.7273007647426587E-01
     1.924904656113064        0.7150043018734184E-01
     1.929917428655026        0.7028786352371830E-01
     1.934930201196987        0.6909211130969135E-01
     1.939942973738948        0.6791291187436621E-01
     1.944955746280909        0.6675000700554481E-01
     1.949968518822870        0.6560314190588873E-01
     1.954981291364831        0.6447206514937111E-01
     1.959994063906792        0.6335652863802005E-01
     1.965006836448753        0.6225628755895700E-01
     1.970019608990714        0.6117110034174286E-01
     1.975032381532676        0.6010072861602959E-01
     1.980045154074637        0.5904493716952536E-01
     1.985057926616598        0.5800349390627735E-01
     1.990070699158559        0.5697616980527658E-01
     1.995083471700520        0.5596273887938569E-01
     2.000096244242481        0.5496297813459728E-01
     2.005109016784442        0.5397666752962048E-01
     2.010121789326404        0.5300358993580370E-01
     2.015134561868364        0.5204353109739199E-01
     2.020147334410326        0.5109627959212210E-01
     2.025160106952287        0.5016162679215867E-01
     2.030172879494248        0.4923936682537000E-01
     2.035185652036209        0.4832929653694675E-01
     2.040198424578170        0.4743121545136643E-01
     2.045211197120131        0.4654492573469796E-01
     2.050223969662092        0.4567023215725442E-01
     2.055236742204053        0.4480694205659057E-01
     2.060249514746014        0.4395486530084399E-01
     2.065262287287976        0.4311381425242376E-01
     2.070275059829937        0.4228360373204307E-01
     2.075287832371898        0.4146405098309629E-01
     2.080300604913859        0.4065497563638195E-01
     2.085313377455820        0.3985619967516645E-01
     2.090326149997781        0.3906754740059421E-01
     2.095338922539742        0.3828884539743501E-01
     2.100351695081703        0.3751992250017547E-01
     2.105364467623664        0.3676060975944823E-01
     2.110377240165625        0.3601074040879847E-01
     2.115390012707587        0.3527014983178779E-01
     2.120402785249548        0.3453867552943175E-01
     2.125415557791509        0.3381615708797147E-01
     2.130428330333470        0.3310243614697460E-01
     2.135441102875431        0.3239735636776718E-01
     2.140453875417392        0.3170076340219192E-01
     2.145466647959353        0.3101250486169050E-01
     2.150479420501314        0.3033243028671035E-01
     2.155492193043275        0.2966039111643069E-01
     2.160504965585237        0.2899624065880704E-01
     2.165517738127198        0.2833983406093155E-01
     2.170530510669159        0.2769102827970641E-01
     2.175543283211120        0.2704968205282815E-01
     2.180556055753081        0.2641565587007956E-01
     2.185568828295042        0.2578881194492805E-01
     2.190581600837003        0.2516901418642525E-01
     2.195594373378964        0.2455612817140764E-01
     2.200607145920925        0.2395002111699372E-01
     2.205619918462887        0.2335056185337578E-01
     2.210632691004847        0.2275762079690354E-01
     2.215645463546809        0.2217106992345519E-01
     2.220658236088770        0.2159078274209530E-01
     2.225671008630731        0.2101663426901268E-01
     2.230683781172692        0.2044850100174097E-01
     2.235696553714653        0.1988626089365358E-01
     2.240709326256614        0.1932979332873440E-01
     2.245722098798575        0.1877897909661567E-01
     2.250734871340537        0.1823370036788566E-01
     2.255747643882497        0.1769384066965923E-01
     2.260760416424459        0.1715928486140870E-01
     2.265773188966420        0.1662991911111877E-01
     2.270785961508381        0.1610563088391947E-01
     2.275798734050342        0.1558630923911905E-01
     2.280811506592303        0.1507184715580829E-01
     2.285824279134264        0.1456214882207001E-01
     2.290837051676225        0.1405714225344539E-01
     2.295849824218187        0.1355679379036417E-01
     2.300862596760147        0.1306112028245587E-01
     2.305875369302109        0.1257019651215169E-01
     2.310888141844070        0.1208415740398904E-01
     2.315900914386031        0.1160319578879121E-01
     2.320913686927992        0.1112755694696270E-01
     2.325926459469953        0.1065753114548360E-01
     2.330939232011914        0.1019344517106385E-01
     2.335952004553875        0.9735653601805758E-02
     2.340964777095836        0.9284530323341703E-02
     2.345977549637797        0.8840460606854778E-02
     2.350990322179759        0.8403833927128268E-02
     2.356003094721720        0.7975037601375953E-02
     2.361015867263681        0.7554451264658877E-02
     2.366028639805642        0.7142442156478234E-02
     2.371041412347603        0.6739361168627136E-02
     2.376054184889564        0.6345539591246306E-02
     2.381066957431525        0.5961286488396359E-02
     2.386079729973486        0.5586886633599280E-02
     2.391092502515447        0.5222598937812929E-02
     2.396105275057408        0.4868655305904505E-02
     2.401118047599370        0.4525259861982317E-02
     2.406130820141331        0.4192588488346343E-02
     2.411143592683292        0.3870788626862345E-02
     2.416156365225253        0.3559979294931794E-02
     2.421169137767214        0.3260251270541350E-02
     2.426181910309175        0.2971667401736204E-02
     2.431194682851136        0.2694262994630941E-02
     2.436207455393097        0.2428046229784567E-02
     2.441220227935058        0.2172998547706695E-02
     2.446233000477020        0.1929074927447770E-02
     2.451245773018981        0.1696203952066503E-02
     2.456258545560942        0.1474287500498808E-02
     2.461271318102903        0.1263199804979304E-02
     2.466284090644864        0.1062785419013348E-02
     2.471296863186825        0.8728552413405627E-03
     2.476309635728786        0.6931788492389962E-03
     2.481322408270747        0.5234691755996049E-03
     2.486335180812708        0.3633491614164563E-03
     2.491347953354670        0.2122670017192922E-03
     2.496360725896630        0.6920057267176136E-04
     2.501373498438592         0.000000000000000    
  0  5  1  0  2.000000   #orbital l, n, z, is_polarized, population
 500    0.1388121316010483E-01     6.926725366892311     # npts, delta, cutoff
     0.000000000000000        0.2314284884318849    
    0.1388121316010483E-01    0.2320515093711573    
    0.2776242632020966E-01    0.2339386147355760    