<preamble>

<basis_specs>
===============================================================================
Fe                   Z=  26    Mass=  55.845        Charge= 0.17977+309
Lmxo=2 Lmxkb= 2    BasisType=split      Semic=T
L=0  Nsemic=1  Cnfigmx=4
          i=1  nzeta=1  polorb=0  (3s)  (semicore shell)
            splnorm:   0.15000    
               vcte:    40.000    
               rinn:    2.2467    
               qcoe:    0.0000    
               qyuk:    0.0000    
               qwid:   0.10000E-01
                rcs:    2.4964    
            lambdas:    1.0000    
          i=2  nzeta=2  polorb=0  (4s)  (to be polarized non-perturbatively)
            splnorm:   0.15000    
               vcte:    40.000    
               rinn:    6.2653    
               qcoe:    0.0000    
               qyuk:    0.0000    
               qwid:   0.10000E-01
                rcs:    6.9545      4.9372    
            lambdas:    1.0000      1.0000    
L=1  Nsemic=1  Cnfigmx=4
          i=1  nzeta=1  polorb=0  (3p)  (semicore shell)
            splnorm:   0.15000    
               vcte:    40.000    
               rinn:    2.5015    
               qcoe:    0.0000    
               qyuk:    0.0000    
               qwid:   0.10000E-01
                rcs:    2.7766    
            lambdas:    1.0000    
          i=2  nzeta=1  polorb=0  (4p)  (non-perturbative polarization shell)
            splnorm:   0.15000    
               vcte:    40.000    
               rinn:    6.2653    
               qcoe:    0.0000    
               qyuk:    0.0000    
               qwid:   0.10000E-01
                rcs:    6.9545    
            lambdas:    1.0000    
L=2  Nsemic=0  Cnfigmx=3
          i=1  nzeta=2  polorb=0  (3d)
            splnorm:   0.15000    
               vcte:    40.000    
               rinn:    3.9837    
               qcoe:    0.0000    
               qyuk:    0.0000    
               qwid:   0.10000E-01
                rcs:    4.4219      2.6700    
            lambdas:    1.0000      1.0000    
-------------------------------------------------------------------------------
L=0  Nkbl=2  erefs: 0.17977+309 0.17977+309
L=1  Nkbl=2  erefs: 0.17977+309 0.17977+309
L=2  Nkbl=1  erefs: 0.17977+309
===============================================================================
</basis_specs>

<pseudopotential_header>
 Fe pw nrl pcec
 ONCVPSP-3.2018-03-09Hamann's oncvpsp                        
 3s 2.00  r= 1.26/3p 6.00  r= 1.21/3d 6.00  r= 1.57/                    3s:3p:3d:4s:
</pseudopotential_header>
</preamble>
Fe                            # Symbol
Fe                            # Label
   26                         # Atomic number
     16.0000000000                             # Valence charge
     55.8450000000        # Mass 
     360.311903574        # Self energy 
   2   7                      # Lmax for basis, no. of nl orbitals 
   2   6                      # Lmax for projectors, no. of nl KB projectors
# PAOs:__________________________
  0  3  1  0  2.000000   #orbital l, n, z, is_polarized, population
 500    0.5002716975635044E-02     2.496355770841887     # npts, delta, cutoff
     0.000000000000000         2.163878713114639    
    0.5002716975635044E-02     2.163826107604036    
    0.1000543395127009E-01     2.163840890268916    
    0.1500815092690513E-01     2.163865481554184    
    0.2001086790254018E-01     2.163899667660000    
    0.2501358487817522E-01     2.163943184126529    
    0.3001630185381026E-01     2.163995696861261    
    0.3501901882944531E-01     2.164056799717561    
    0.4002173580508035E-01     2.164126014204827    
    0.4502445278071539E-01     2.164202789727719    
    0.5002716975635044E-01     2.164286504033634    
    0.5502988673198549E-01     2.164376463780563    
    0.6003260370762053E-01     2.164471905195684    
    0.6503532068325557E-01     2.164571994812873    
    0.7003803765889062E-01     2.164675830283683    
    0.7504075463452566E-01     2.164782441258850    
    0.8004347161016070E-01     2.164890790338392    
    0.8504618858579575E-01     2.164999774088912    
    0.9004890556143079E-01     2.165108224126858    
    0.9505162253706584E-01     2.165214908266577    
    0.1000543395127009         2.165318531732068    
    0.1050570564883359         2.165417738431271    
    0.1100597734639710         2.165511112291690    
    0.1150624904396060         2.165597178656181    
    0.1200652074152411         2.165674405737601    
    0.1250679243908761         2.165741206131004    
    0.1300706413665111         2.165795938382050    
    0.1350733583421462         2.165836908610161    
    0.1400760753177812         2.165862372184997    
    0.1450787922934163         2.165870535454692    
    0.1500815092690513         2.165859557524318    
    0.1550842262446864         2.165827552082916    
    0.1600869432203214         2.165772589277451    
    0.1650896601959564         2.165692697631946    
    0.1700923771715915         2.165585866010057    
    0.1750950941472265         2.165450045619247    
    0.1800978111228616         2.165283152054723    
    0.1851005280984966         2.165083067381215    
    0.1901032450741317         2.164847642250670    
    0.1951059620497667         2.164574698053868    
    0.2001086790254017         2.164262029103944    
    0.2051113960010368         2.163907404849744    
    0.2101141129766718         2.163508572116928    
    0.2151168299523069         2.163063257374673    
    0.2201195469279419         2.162569169025844    
    0.2251222639035770         2.162023999718404    
    0.2301249808792120         2.161425428675853    
    0.2351276978548471         2.160771124044461    
    0.2401304148304821         2.160058745254997    
    0.2451331318061171         2.159285945396650    
    0.2501358487817522         2.158450373600889    
    0.2551385657573872         2.157549677432807    
    0.2601412827330223         2.156581505287730    
    0.2651439997086573         2.155543508790613    
    0.2701467166842924         2.154433345195905    
    0.2751494336599274         2.153248679785502    
    0.2801521506355625         2.151987188262326    
    0.2851548676111975         2.150646559137229    
    0.2901575845868326         2.149224496106731    
    0.2951603015624676         2.147718720419244    
    0.3001630185381026         2.146126973227380    
    0.3051657355137377         2.144447017923937    
    0.3101684524893727         2.142676642459194    
    0.3151711694650078         2.140813661637138    
    0.3201738864406428         2.138855919388283    
    0.3251766034162779         2.136801291016708    
    0.3301793203919129         2.134647685419043    
    0.3351820373675479         2.132393047273066    
    0.3401847543431830         2.130035359193663    
    0.3451874713188181         2.127572643853889    
    0.3501901882944531         2.125002966068953    
    0.3551929052700881         2.122324434840901    
    0.3601956222457232         2.119535205361900    
    0.3651983392213582         2.116633480973994    
    0.3702010561969933         2.113617515083281    
    0.3752037731726283         2.110485613026496    
    0.3802064901482634         2.107236133888040    
    0.3852092071238984         2.103867492265513    
    0.3902119240995334         2.100378159981924    
    0.3952146410751685         2.096766667742743    
    0.4002173580508035         2.093031606736045    
    0.4052200750264386         2.089171630174075    
    0.4102227920020736         2.085185454774592    
    0.4152255089777087         2.081071862180436    
    0.4202282259533437         2.076829700315816    
    0.4252309429289787         2.072457884677919    
    0.4302336599046138         2.067955399562469    
    0.4352363768802489         2.063321299221956    
    0.4402390938558839         2.058554708955362    
    0.4452418108315189         2.053654826128226    
    0.4502445278071540         2.048620921122040    
    0.4552472447827890         2.043452338211999    
    0.4602499617584240         2.038148496372214    
    0.4652526787340591         2.032708890007643    
    0.4702553957096942         2.027133089611982    
    0.4752581126853292         2.021420742350930    
    0.4802608296609642         2.015571572570291    
    0.4852635466365993         2.009585382228472    
    0.4902662636122343         2.003462051253043    
    0.4952689805878693         1.997201537821067    
    0.5002716975635044         1.990803878563075    
    0.5052744145391395         1.984269188690598    
    0.5102771315147745         1.977597662047266    
    0.5152798484904095         1.970789571083598    
    0.5202825654660446         1.963845266755702    
    0.5252852824416796         1.956765178348153    
    0.5302879994173146         1.949549813221475    
    0.5352907163929497         1.942199756484694    
    0.5402934333685847         1.934715670593546    
    0.5452961503442199         1.927098294875003    
    0.5502988673198549         1.919348444978886    
    0.5553015842954899         1.911467012257406    
    0.5603043012711250         1.903454963073569    
    0.5653070182467600         1.895313338039489    
    0.5703097352223950         1.887043251185690    
    0.5753124521980301         1.878645906094407    
    0.5803151691736651         1.870122558373893    
    0.5853178861493001         1.861474521572869    
    0.5903206031249352         1.852703193761530    
    0.5953233201005702         1.843810041284428    
    0.6003260370762052         1.834796597543756    
    0.6053287540518403         1.825664461723652    
    0.6103314710274754         1.816415297457283    
    0.6153341880031105         1.807050831438484    
    0.6203369049787455         1.797572851979830    
    0.6253396219543805         1.787983207519059    
    0.6303423389300156         1.778283805075832    
    0.6353450559056506         1.768476608660859    
    0.6403477728812856         1.758563637639498    
    0.6453504898569207         1.748546965051942    
    0.6503532068325557         1.738428715892216    
    0.6553559238081907         1.728211065348174    
    0.6603586407838258         1.717896237004798    
    0.6653613577594608         1.707486501013070    
    0.6703640747350958         1.696984172226783    
    0.6753667917107310         1.686391608309636    
    0.6803695086863660         1.675711207815000    
    0.6853722256620011         1.664945408240776    
    0.6903749426376361         1.654096684061771    
    0.6953776596132711         1.643167544742014    
    0.7003803765889062         1.632160532729481    
    0.7053830935645412         1.621078221435680    
    0.7103858105401762         1.609923213202542    
    0.7153885275158113         1.598698137259088    
    0.7203912444914463         1.587405647670309    
    0.7253939614670813         1.576048421280711    
    0.7303966784427164         1.564629155654932    
    0.7353993954183514         1.553150567017874    
    0.7404021123939866         1.541615388196693    
    0.7454048293696216         1.530026366567054    
    0.7504075463452566         1.518386262005958    
    0.7554102633208917         1.506697844853470    
    0.7604129802965267         1.494963893885586    
    0.7654156972721617         1.483187194300510    
    0.7704184142477968         1.471370535720488    
    0.7754211312234318         1.459516710211388    
    0.7804238481990668         1.447628510322079    
    0.7854265651747019         1.435708727145691    
    0.7904292821503369         1.423760148404729    
    0.7954319991259720         1.411785556561972    
    0.8004347161016070         1.399787726959052    
    0.8054374330772421         1.387769425984505    
    0.8104401500528772         1.375733409273060    
    0.8154428670285122         1.363682419937836    
    0.8204455840041472         1.351619186837067    
    0.8254483009797823         1.339546422876897    
    0.8304510179554173         1.327466823351719    
    0.8354537349310523         1.315383064323437    
    0.8404564519066874         1.303297801040995    
    0.8454591688823224         1.291213666401393    
    0.8504618858579575         1.279133269453364    
    0.8554646028335925         1.267059193944795    
    0.8604673198092275         1.254993996914894    
    0.8654700367848627         1.242940207332012    
    0.8704727537604977         1.230900324777995    
    0.8754754707361327         1.218876818179763    
    0.8804781877117678         1.206872124588855    
    0.8854809046874028         1.194888648009478    
    0.8904836216630378         1.182928758275600    
    0.8954863386386729         1.170994789977500    
    0.9004890556143079         1.159089041438108    
    0.9054917725899430         1.147213773739426    
    0.9104944895655780         1.135371209799167    
    0.9154972065412130         1.123563533497751    
    0.9204999235168481         1.111792888855652    
    0.9255026404924831         1.100061379261052    
    0.9305053574681182         1.088371066747664    
    0.9355080744437533         1.076723971322503    
    0.9405107914193883         1.065122070343339    
    0.9455135083950233         1.053567297945470    
    0.9505162253706584         1.042061544517367    
    0.9555189423462934         1.030606656224744    
    0.9605216593219285         1.019204434582438    
    0.9655243762975635         1.007856636073513    
    0.9705270932731985        0.9965649718148839    
    0.9755298102488336        0.9853311072687195    
    0.9805325272244686        0.9741566619988257    
    0.9855352442001036        0.9630432094711409    
    0.9905379611757387        0.9519922768974490    
    0.9955406781513738        0.9410053451213474    
     1.000543395127009        0.9300838485454648    
     1.005546112102644        0.9192291750988906    
     1.010548829078279        0.9084426662437199    
     1.015551546053914        0.8977256170196086    
     1.020554263029549        0.8870792761251652    
     1.025556980005184        0.8765048460349988    
     1.030559696980819        0.8660034831512158    
     1.035562413956454        0.8555762979881104    
     1.040565130932089        0.8452243553888127    
     1.045567847907724        0.8349486747725836    
     1.050570564883359        0.8247502304114912    
     1.055573281858994        0.8146299517351477    
     1.060575998834629        0.8045887236621904    
     1.065578715810264        0.7946273869572027    
     1.070581432785899        0.7847467386117317    
     1.075584149761534        0.7749475322480885    
     1.080586866737169        0.7652304785446162    
     1.085589583712804        0.7555962456811044    
     1.090592300688440        0.7460454598030516    
     1.095595017664075        0.7365787055034758    
     1.100597734639710        0.7271965263210103    
     1.105600451615345        0.7178994252530070    
     1.110603168590980        0.7086878652824173    
     1.115605885566615        0.6995622699172338    
     1.120608602542250        0.6905230237412950    
     1.125611319517885        0.6815704729752864    
     1.130614036493520        0.6727049260468035    
     1.135616753469155        0.6639266541683797    
     1.140619470444790        0.6552358919223878    
     1.145622187420425        0.6466328378517905    
     1.150624904396060        0.6381176550557501    
     1.155627621371695        0.6296904717891073    
     1.160630338347330        0.6213513820648403    
     1.165633055322965        0.6131004462585994    
     1.170635772298600        0.6049376917144859    
     1.175638489274235        0.5968631133512967    
     1.180641206249870        0.5888766742684638    
     1.185643923225505        0.5809783063509888    
     1.190646640201140        0.5731679108727309    
     1.195649357176775        0.5654453590974168    
     1.200652074152410        0.5578104928768350    
     1.205654791128046        0.5502631252456250    
     1.210657508103681        0.5428030410122919    
     1.215660225079316        0.5354299973459959    
     1.220662942054951        0.5281437243589052    
     1.225665659030586        0.5209439261974319    
     1.230668376006221        0.5138302819087912    
     1.235671092981856        0.5068024435688632    
     1.240673809957491        0.4998600327824702    
     1.245676526933126        0.4930026423937997    
     1.250679243908761        0.4862298549638083    
     1.255681960884396        0.4795412573675561    
     1.260684677860031        0.4729364284601019    
     1.265687394835666        0.4664148727355027    
     1.270690111811301        0.4599759601951358    
     1.275692828786936        0.4536189076916081    
     1.280695545762571        0.4473428452369312    
     1.285698262738206        0.4411468863301731    
     1.290700979713841        0.4350301789331221    
     1.295703696689476        0.4289918943862014    
     1.300706413665111        0.4230312127468735    
     1.305709130640746        0.4171473077080444    
     1.310711847616381        0.4113393518415980    
     1.315714564592017        0.4056065194522722    
     1.320717281567652        0.3999479892087843    
     1.325719998543287        0.3943629434587130    
     1.330722715518922        0.3888505681189927    
     1.335725432494557        0.3834100528765751    
     1.340728149470192        0.3780405913849185    
     1.345730866445827        0.3727413814488157    
     1.350733583421462        0.3675116250393630    
     1.355736300397097        0.3623505282181184    
     1.360739017372732        0.3572573019849118    
     1.365741734348367        0.3522311621613989    
     1.370744451324002        0.3472713295109865    
     1.375747168299637        0.3423770298664391    
     1.380749885275272        0.3375474942493482    
     1.385752602250907        0.3327819589817824    
     1.390755319226542        0.3280796657904281    
     1.395758036202177        0.3234398619034971    
     1.400760753177812        0.3188618001407219    
     1.405763470153447        0.3143447389966756    
     1.410766187129082        0.3098879427177101    
     1.415768904104717        0.3054906813727621    
     1.420771621080352        0.3011522309182677    
     1.425774338055988        0.2968718732574316    
     1.430777055031623        0.2926488962940831    
     1.435779772007258        0.2884825939813399    
     1.440782488982893        0.2843722663652842    
     1.445785205958528        0.2803172196238798    
     1.450787922934163        0.2763167661013110    
     1.455790639909798        0.2723702243379426    
     1.460793356885433        0.2684769190960897    
     1.465796073861068        0.2646361813817731    
     1.470798790836703        0.2608473484626375    
     1.475801507812338        0.2571097638821853    
     1.480804224787973        0.2534227774705127    
     1.485806941763608        0.2497857453516761    
     1.490809658739243        0.2461980299478534    
     1.495812375714878        0.2426589999804414    
     1.500815092690513        0.2391680304682270    
     1.505817809666148        0.2357245027227641    
     1.510820526641783        0.2323278043410894    
     1.515823243617418        0.2289773291958973    
     1.520825960593053        0.2256724774232930    
     1.525828677568688        0.2224126554082491    
     1.530831394544323        0.2191972757678651    
     1.535834111519959        0.2160257573325353    
     1.540836828495594        0.2128975251251313    
     1.545839545471229        0.2098120103383118    
     1.550842262446864        0.2067686503100399    
     1.555844979422499        0.2037668884974092    
     1.560847696398134        0.2008061744488422    
     1.565850413373769        0.1978859637747450    
     1.570853130349404        0.1950057181167536    
     1.575855847325039        0.1921649051156411    
     1.580858564300674        0.1893629983779308    
     1.585861281276309        0.1865994774412882    
     1.590863998251944        0.1838738277387511    
     1.595866715227579        0.1811855405618640    
     1.600869432203214        0.1785341130228623    
     1.605872149178849        0.1759190480158868    
     1.610874866154484        0.1733398541773005    
     1.615877583130119        0.1707960458451572    
     1.620880300105754        0.1682871430179004    
     1.625883017081389        0.1658126713123431    
     1.630885734057024        0.1633721619209937    
     1.635888451032659        0.1609651515687578    
     1.640891168008294        0.1585911824690479    
     1.645893884983930        0.1562498022793617    
     1.650896601959565        0.1539405640563799    
     1.655899318935200        0.1516630262106141    
     1.660902035910835        0.1494167524606562    
     1.665904752886470        0.1472013117870581    
     1.670907469862105        0.1450162783858797    
     1.675910186837740        0.1428612316219457    
     1.680912903813375        0.1407357559818384    
     1.685915620789010        0.1386394410266625    
     1.690918337764645        0.1365718813446141    
     1.695921054740280        0.1345326765033802    
     1.700923771715915        0.1325214310023990    
     1.705926488691550        0.1305377542250073    
     1.710929205667185        0.1285812603905034    
     1.715931922642820        0.1266515685061483    
     1.720934639618455        0.1247483023191263    
     1.725937356594090        0.1228710902684949    
     1.730940073569725        0.1210195654371388    
     1.735942790545360        0.1191933655037523    
     1.740945507520995        0.1173921326948682    
     1.745948224496630        0.1156155137369535    
     1.750950941472265        0.1138631598085888    
     1.755953658447901        0.1121347264927486    
     1.760956375423536        0.1104298737291988    
     1.765959092399171        0.1087482657670266    
     1.770961809374806        0.1070895711173208    
     1.775964526350441        0.1054534625060077    
     1.780967243326076        0.1038396168268675    
     1.785969960301711        0.1022477150947365    
     1.790972677277346        0.1006774423989057    
     1.795975394252981        0.9912848785673349E-01
     1.800978111228616        0.9760054456747913E-01
     1.805980828204251        0.9609330956636500E-01
     1.810983545179886        0.9460648377888284E-01
     1.815986262155521        0.9313977197534880E-01
     1.820988979131156        0.9169288272571618E-01
     1.825991696106791        0.9026552835465571E-01
     1.830994413082426        0.8885742489690901E-01
     1.835997130058061        0.8746829205292360E-01
     1.840999847033696        0.8609785314477453E-01
     1.846002564009331        0.8474583507238051E-01
     1.851005280984966        0.8341196827001933E-01
     1.856007997960601        0.8209598666314680E-01
     1.861010714936236        0.8079762762552757E-01
     1.866013431911872        0.7951663193667848E-01
     1.871016148887507        0.7825274373963065E-01
     1.876018865863142        0.7700571049901465E-01
     1.881021582838777        0.7577528295947139E-01
     1.886024299814412        0.7456121510439165E-01
     1.891027016790047        0.7336326411498865E-01
     1.896029733765682        0.7218119032970492E-01
     1.901032450741317        0.7101475720395639E-01
     1.906035167716952        0.6986373127021639E-01
     1.911037884692587        0.6872788209844014E-01
     1.916040601668222        0.6760698225683257E-01
     1.921043318643857        0.6650080727296041E-01
     1.926046035619492        0.6540913559520904E-01
     1.931048752595127        0.6433174855458687E-01
     1.936051469570762        0.6326843032687542E-01
     1.941054186546397        0.6221896789512799E-01
     1.946056903522032        0.6118315101251643E-01
     1.951059620497667        0.6016077216552523E-01
     1.956062337473302        0.5915162653749417E-01
     1.961065054448937        0.5815551197251012E-01
     1.966067771424572        0.5717222893964389E-01
     1.971070488400207        0.5620158049753681E-01
     1.976073205375842        0.5524337225933382E-01
     1.981075922351477        0.5429741235795987E-01
     1.986078639327113        0.5336351141174367E-01
     1.991081356302748        0.5244148249038584E-01
     1.996084073278383        0.5153114108126679E-01
     2.001086790254018        0.5063230505609991E-01
     2.006089507229653        0.4974479463792199E-01
     2.011092224205288        0.4886843236842430E-01
     2.016094941180923        0.4800304307562031E-01
     2.021097658156558        0.4714845384184851E-01
     2.026100375132193        0.4630449397210958E-01
     2.031103092107828        0.4547099496273593E-01
     2.036105809083463        0.4464779047038992E-01
     2.041108526059098        0.4383471628139274E-01
     2.046111243034733        0.4303161028137634E-01
     2.051113960010368        0.4223831242526164E-01
     2.056116676986003        0.4145466470755849E-01
     2.061119393961638        0.4068051113298327E-01
     2.066122110937273        0.3991569768739609E-01
     2.071124827912908        0.3916007230905180E-01
     2.076127544888543        0.3841348486016334E-01
     2.081130261864178        0.3767578709877644E-01
     2.086132978839813        0.3694683265095014E-01
     2.091135695815448        0.3622647698324463E-01
     2.096138412791083        0.3551457737550968E-01
     2.101141129766718        0.3481099289397379E-01
     2.106143846742353        0.3411558436463209E-01
     2.111146563717988        0.3342821434692577E-01
     2.116149280693624        0.3274874710771688E-01
     2.121151997669259        0.3207704859554991E-01
     2.126154714644894        0.3141298641520148E-01
     2.131157431620529        0.3075642980251313E-01
     2.136160148596164        0.3010724959950495E-01
     2.141162865571799        0.2946531822976854E-01
     2.146165582547434        0.2883050967413337E-01
     2.151168299523069        0.2820269944660794E-01
     2.156171016498704        0.2758176457058923E-01
     2.161173733474339        0.2696758355533954E-01
     2.166176450449974        0.2636003637272718E-01
     2.171179167425609        0.2575900443422887E-01
     2.176181884401244        0.2516437056819015E-01
     2.181184601376879        0.2457601899734029E-01
     2.186187318352514        0.2399383531656172E-01
     2.191190035328149        0.2341770647090650E-01
     2.196192752303785        0.2284752073386262E-01
     2.201195469279420        0.2228316768586217E-01
     2.206198186255055        0.2172453819303081E-01
     2.211200903230690        0.2117152438617597E-01
     2.216203620206325        0.2062401964000910E-01
     2.221206337181960        0.2008191855260249E-01
     2.226209054157595        0.1954511692507288E-01
     2.231211771133230        0.1901351174149423E-01
     2.236214488108865        0.1848700114903261E-01
     2.241217205084500        0.1796548443830284E-01
     2.246219922060135        0.1744886202394248E-01
     2.251222639035770        0.1693703542540209E-01
     2.256225356011405        0.1642990724794666E-01
     2.261228072987040        0.1592738116392953E-01
     2.266230789962675        0.1542936190595965E-01
     2.271233506938310        0.1493575555493011E-01
     2.276236223913945        0.1444647176843691E-01
     2.281238940889580        0.1396143075958202E-01
     2.286241657865215        0.1348057538156572E-01
     2.291244374840850        0.1300388502151860E-01
     2.296247091816485        0.1253138729188037E-01
     2.301249808792120        0.1206316517229213E-01
     2.306252525767755        0.1159935916168740E-01
     2.311255242743390        0.1114016517143729E-01
     2.316257959719025        0.1068582932782556E-01
     2.321260676694660        0.1023664084476420E-01
     2.326263393670295        0.9792923926030954E-02
     2.331266110645930        0.9355029408279269E-02
     2.336268827621566        0.8923326630292145E-02
     2.341271544597201        0.8498195833699070E-02
     2.346274261572836        0.8080021267073686E-02
     2.351276978548471        0.7669185072031610E-02
     2.356279695524106        0.7266061967628719E-02
     2.361282412499741        0.6871014709751205E-02
     2.366285129475376        0.6484390278560247E-02
     2.371287846451011        0.6106516734329471E-02
     2.376290563426646        0.5737700676481036E-02
     2.381293280402281        0.5378225239681917E-02
     2.386295997377916        0.5028348562686349E-02
     2.391298714353551        0.4688302668962260E-02
     2.396301431329186        0.4358292702182219E-02
     2.401304148304821        0.4038496463797317E-02
     2.406306865280456        0.3729064203741196E-02
     2.411309582256091        0.3430118618469685E-02
     2.416312299231726        0.3141755012721670E-02
     2.421315016207361        0.2864041582151658E-02
     2.426317733182996        0.2597019772766865E-02
     2.431320450158631        0.2340704668921262E-02
     2.436323167134267        0.2095085352872836E-02
     2.441325884109902        0.1860125162674214E-02
     2.446328601085537        0.1635761746100364E-02
     2.451331318061172        0.1421906756011813E-02
     2.456334035036807        0.1218444935851217E-02
     2.461336752012442        0.1025232156921185E-02
     2.466339468988077        0.8420915841895843E-03
     2.471342185963712        0.6688062880101952E-03
     2.476344902939347        0.5051044817063281E-03
     2.481347619914982        0.3506273973943976E-03
     2.486350336890617        0.2048476371995705E-03
     2.491353053866252        0.6678445822025880E-04
     2.496355770841887         0.000000000000000    
  0  4  1  0  2.000000   #orbital l, n, z, is_polarized, population
 500    0.1393692953152025E-01     6.954527836228606     # npts, delta, cutoff
     0.000000000000000        0.9657472689725268    
    0.1393692953152025E-01    0.9655383164096393    
    0.2787385906304050E-01    0.9649877523849644    