<preamble>

<basis_specs>
===============================================================================
Hg                   Z=  80    Mass=  200.59        Charge= 0.17977+309
Lmxo=2 Lmxkb= 3    BasisType=split      Semic=T
L=0  Nsemic=1  Cnfigmx=6
          i=1  nzeta=1  polorb=0  (5s)  (semicore shell)
            splnorm:   0.15000    
               vcte:    40.000    
               rinn:    2.2198    
               qcoe:    0.0000    
               qyuk:    0.0000    
               qwid:   0.10000E-01
                rcs:    2.4665    
            lambdas:    1.0000    
          i=2  nzeta=2  polorb=0  (6s)  (to be polarized non-perturbatively)
            splnorm:   0.15000    
               vcte:    40.000    
               rinn:    4.7903    
               qcoe:    0.0000    
               qyuk:    0.0000    
               qwid:   0.10000E-01
                rcs:    5.3172      3.6513    
            lambdas:    1.0000      1.0000    
L=1  Nsemic=1  Cnfigmx=6
          i=1  nzeta=1  polorb=0  (5p)  (semicore shell)
            splnorm:   0.15000    
               vcte:    40.000    
               rinn:    2.6170    
               qcoe:    0.0000    
               qyuk:    0.0000    
               qwid:   0.10000E-01
                rcs:    2.9078    
            lambdas:    1.0000    
          i=2  nzeta=1  polorb=0  (6p)  (non-perturbative polarization shell)
            splnorm:   0.15000    
               vcte:    40.000    
               rinn:    4.7903    
               qcoe:    0.0000    
               qyuk:    0.0000    
               qwid:   0.10000E-01
                rcs:    5.3172    
            lambdas:    1.0000    
L=2  Nsemic=0  Cnfigmx=5
          i=1  nzeta=2  polorb=0  (5d)
            splnorm:   0.15000    
               vcte:    40.000    
               rinn:    4.1467    
               qcoe:    0.0000    
               qyuk:    0.0000    
               qwid:   0.10000E-01
                rcs:    4.6028      2.9549    
            lambdas:    1.0000      1.0000    
-------------------------------------------------------------------------------
L=0  Nkbl=2  erefs: 0.17977+309 0.17977+309
L=1  Nkbl=2  erefs: 0.17977+309 0.17977+309
L=2  Nkbl=1  erefs: 0.17977+309
L=3  Nkbl=1  erefs: 0.17977+309
===============================================================================
</basis_specs>

<pseudopotential_header>
 Hg pw nrl pcec
 ONCVPSP-3.2018-03-09Hamann's oncvpsp                        
 5s 2.00  r= 1.60/5p 6.00  r= 1.60/5d10.00  r= 1.46/5f 0.00  r= 1.60/   5s:5p:5d:6s:
</pseudopotential_header>
</preamble>
Hg                            # Symbol
Hg                            # Label
   80                         # Atomic number
     20.0000000000                             # Valence charge
     200.590000000        # Mass 
     438.412214139        # Self energy 
   2   7                      # Lmax for basis, no. of nl orbitals 
   3   7                      # Lmax for projectors, no. of nl KB projectors
# PAOs:__________________________
  0  5  1  0  2.000000   #orbital l, n, z, is_polarized, population
 500    0.4942804087248756E-02     2.466459239537129     # npts, delta, cutoff
     0.000000000000000         1.811640061688227    
    0.4942804087248756E-02     1.811588909691502    
    0.9885608174497513E-02     1.811616099658970    
    0.1482841226174627E-01     1.811661427532481    
    0.1977121634899503E-01     1.811724757523977    
    0.2471402043624378E-01     1.811805936292809    
    0.2965682452349254E-01     1.811904772687265    
    0.3459962861074129E-01     1.812021034971728    
    0.3954243269799005E-01     1.812154450265858    
    0.4448523678523881E-01     1.812304704498622    
    0.4942804087248756E-01     1.812471442537659    
    0.5437084495973632E-01     1.812654268401190    
    0.5931364904698508E-01     1.812852745521482    
    0.6425645313423384E-01     1.813066397047768    
    0.6919925722148258E-01     1.813294706183315    
    0.7414206130873134E-01     1.813537116554022    
    0.7908486539598010E-01     1.813793032607077    
    0.8402766948322886E-01     1.814061820038774    
    0.8897047357047762E-01     1.814342806250827    
    0.9391327765772636E-01     1.814635280834622    
    0.9885608174497512E-01     1.814938496082987    
    0.1037988858322239         1.815251667528970    
    0.1087416899194726         1.815573974511249    
    0.1136844940067214         1.815904560765691    
    0.1186272980939702         1.816242535042626    
    0.1235701021812189         1.816586971749379    
    0.1285129062684677         1.816936911617582    
    0.1334557103557164         1.817291362394772    
    0.1383985144429652         1.817649299559777    
    0.1433413185302139         1.818009667061364    
    0.1482841226174627         1.818371378079613    
    0.1532269267047114         1.818733315809467    
    0.1581697307919602         1.819094334265881    
    0.1631125348792090         1.819453259109999    
    0.1680553389664577         1.819808888495752    
    0.1729981430537065         1.820159993936266    
    0.1779409471409552         1.820505321189442    
    0.1828837512282040         1.820843591162096    
    0.1878265553154527         1.821173500831967    
    0.1927693594027015         1.821493724186951    
    0.1977121634899502         1.821802913180877    
    0.2026549675771990         1.822099698705124    
    0.2075977716644478         1.822382691575379    
    0.2125405757516965         1.822650483532837    
    0.2174833798389453         1.822901648259088    
    0.2224261839261940         1.823134742404000    
    0.2273689880134428         1.823348306625793    
    0.2323117921006916         1.823540866642627    
    0.2372545961879403         1.823710934294870    
    0.2421974002751890         1.823857008617336    
    0.2471402043624378         1.823977576920678    
    0.2520830084496866         1.824071115881178    
    0.2570258125369353         1.824136092638135    
    0.2619686166241841         1.824170965898061    
    0.2669114207114328         1.824174187044885    
    0.2718542247986816         1.824144201255369    
    0.2767970288859303         1.824079448618926    
    0.2817398329731791         1.823978365261029    
    0.2866826370604278         1.823839384469415    
    0.2916254411476766         1.823660937822243    
    0.2965682452349254         1.823441456317431    
    0.3015110493221742         1.823179371502323    
    0.3064538534094229         1.822873116602898    
    0.3113966574966717         1.822521127651692    
    0.3163394615839204         1.822121844613635    
    0.3212822656711691         1.821673712508970    
    0.3262250697584179         1.821175182532495    
    0.3311678738456666         1.820624713168262    
    0.3361106779329154         1.820020771298991    
    0.3410534820201642         1.819361833309359    
    0.3459962861074130         1.818646386182418    
    0.3509390901946617         1.817872928588315    
    0.3558818942819105         1.817039971964570    
    0.3608246983691592         1.816146041587126    
    0.3657675024564080         1.815189677631405    
    0.3707103065436567         1.814169436222632    
    0.3756531106309055         1.813083890474666    
    0.3805959147181542         1.811931631516609    
    0.3855387188054030         1.810711269506453    
    0.3904815228926518         1.809421434631084    
    0.3954243269799005         1.808060778091892    
    0.4003671310671493         1.806627973075330    
    0.4053099351543980         1.805121715707718    
    0.4102527392416468         1.803540725993645    
    0.4151955433288955         1.801883748737295    
    0.4201383474161443         1.800149554446061    
    0.4250811515033930         1.798336940215831    
    0.4300239555906418         1.796444730597318    
    0.4349667596778906         1.794471778442847    
    0.4399095637651393         1.792416965733017    
    0.4448523678523881         1.790279204382665    
    0.4497951719396368         1.788057437025603    
    0.4547379760268856         1.785750637777571    
    0.4596807801141343         1.783357812976907    
    0.4646235842013831         1.780878001902445    
    0.4695663882886318         1.778310277468146    
    0.4745091923758806         1.775653746894021    
    0.4794519964631294         1.772907552352885    
    0.4843948005503781         1.770070871592548    
    0.4893376046376269         1.767142918533017    
    0.4942804087248756         1.764122943838349    
    0.4992232128121244         1.761010235462780    
    0.5041660168993731         1.757804119170797    
    0.5091088209866219         1.754503959030835    
    0.5140516250738707         1.751109157882297    
    0.5189944291611194         1.747619157775628    
    0.5239372332483682         1.744033440385172    
    0.5288800373356169         1.740351527394611    
    0.5338228414228656         1.736572980854730    
    0.5387656455101144         1.732697403513361    
    0.5437084495973632         1.728724439117310    
    0.5486512536846120         1.724653772686147    
    0.5535940577718607         1.720485130757706    
    0.5585368618591094         1.716218281605227    
    0.5634796659463582         1.711853035426043    
    0.5684224700336070         1.707389244501761    
    0.5733652741208557         1.702826803329911    
    0.5783080782081045         1.698165648727045    
    0.5832508822953533         1.693405759903310    
    0.5881936863826019         1.688547158508514    
    0.5931364904698507         1.683589908649763    
    0.5980792945570995         1.678534116880725    
    0.6030220986443483         1.673379932162659    
    0.6079649027315970         1.668127545797287    
    0.6129077068188458         1.662777191331699    
    0.6178505109060946         1.657329144435433    
    0.6227933149933433         1.651783722749925    
    0.6277361190805920         1.646141285710549    
    0.6326789231678408         1.640402234341471    
    0.6376217272550896         1.634567011023569    
    0.6425645313423383         1.628636099235700    
    0.6475073354295870         1.622610023269603    
    0.6524501395168358         1.616489347918752    
    0.6573929436040846         1.610274700739482    
    0.6623357476913333         1.603966724993403    
    0.6672785517785821         1.597566083103352    
    0.6722213558658309         1.591073498258791    
    0.6771641599530797         1.584489732216533    
    0.6821069640403283         1.577815584841005    
    0.6870497681275771         1.571051893621193    
    0.6919925722148259         1.564199533164732    
    0.6969353763020746         1.557259414669633    
    0.7018781803893234         1.550232485374101    
    0.7068209844765722         1.543119727985010    
    0.7117637885638209         1.535922160085513    
    0.7167065926510696         1.528640833522352    
    0.7216493967383184         1.521276833773413    
    0.7265922008255672         1.513831279296088    
    0.7315350049128160         1.506305320857045    
    0.7364778090000647         1.498700140843966    
    0.7414206130873134         1.491016952559891    
    0.7463634171745622         1.483256999500762    
    0.7513062212618109         1.475421554616789    
    0.7562490253490597         1.467511919558302    
    0.7611918294363085         1.459529423906700    
    0.7661346335235573         1.451475424391183    
    0.7710774376108059         1.443351304091900    
    0.7760202416980547         1.435158471630210    
    0.7809630457853035         1.426898360346712    
    0.7859058498725523         1.418572427467744    
    0.7908486539598010         1.410182153261027    
    0.7957914580470498         1.401729040181154    
    0.8007342621342985         1.393214612005619    
    0.8056770662215472         1.384640412962106    
    0.8106198703087960         1.376008006847700    
    0.8155626743960448         1.367318976140779    
    0.8205054784832936         1.358574921106264    
    0.8254482825705423         1.349777458894939    
    0.8303910866577910         1.340928222637566    
    0.8353338907450398         1.332028860534491    
    0.8402766948322886         1.323081034941459    
    0.8452194989195373         1.314086421452336    
    0.8501623030067861         1.305046707979460    
    0.8551051070940349         1.295963593832305    
    0.8600479111812835         1.286838788795167    
    0.8649907152685323         1.277674012204565    
    0.8699335193557811         1.268470992027052    
    0.8748763234430299         1.259231463938103    
    0.8798191275302786         1.249957170402791    
    0.8847619316175274         1.240649859758878    
    0.8897047357047762         1.231311285303043    
    0.8946475397920249         1.221943204380841    
    0.8995903438792736         1.212547377481098    
    0.9045331479665224         1.203125567335339    
    0.9094759520537712         1.193679538022917    
    0.9144187561410199         1.184211054082424    
    0.9193615602282686         1.174721879630031    
    0.9243043643155174         1.165213777485330    
    0.9292471684027662         1.155688508305275    
    0.9341899724900149         1.146147829726807    
    0.9391327765772637         1.136593495518702    
    0.9440755806645125         1.127027254743216    
    0.9490183847517613         1.117450850928051    
    0.9539611888390099         1.107866021249172    
    0.9589039929262587         1.098274495724968    
    0.9638467970135075         1.088677996422281    
    0.9687896011007562         1.079078236674746    
    0.9737324051880050         1.069476920313938    
    0.9786752092752538         1.059875740913752    
    0.9836180133625025         1.050276381048464    
    0.9885608174497512         1.040680511564873    
    0.9935036215370000         1.031089790868945    
    0.9984464256242488         1.021505864227317    
     1.003389229711497         1.011930363084049    
     1.008332033798746         1.002364904392961    
     1.013274837885995        0.9928110899658884    
     1.018217641973244        0.9832705058371658    
     1.023160446060493        0.9737447216446490    
     1.028103250147741        0.9642352900275322    
     1.033046054234990        0.9547437460412369    
     1.037988858322239        0.9452716065896110    
     1.042931662409488        0.9358203698746561    
     1.047874466496736        0.9263915148639906    
     1.052817270583985        0.9169865007762397    
     1.057760074671234        0.9076067665845201    
     1.062702878758483        0.8982537305381626    
     1.067645682845731        0.8889287897028175    
     1.072588486932980        0.8796333195190406    
     1.077531291020229        0.8703686733794684    
     1.082474095107478        0.8611361822246647    
     1.087416899194726        0.8519371541576714    
     1.092359703281975        0.8427728740773385    
     1.097302507369224        0.8336446033304356    
     1.102245311456473        0.8245535793825602    
     1.107188115543721        0.8155010155078258    
     1.112130919630970        0.8064881004973072    
     1.117073723718219        0.7975159983861987    
     1.122016527805468        0.7885858481996089    
     1.126959331892716        0.7796987637169430    
     1.131902135979965        0.7708558332547404    
     1.136844940067214        0.7620581194678848    
     1.141787744154463        0.7533066591690554    
     1.146730548241711        0.7446024631662593    
     1.151673352328960        0.7359465161183150    
     1.156616156416209        0.7273397764080988    
     1.161558960503458        0.7187831760333642    
     1.166501764590707        0.7102776205149511    
     1.171444568677955        0.7018239888221578    
     1.176387372765204        0.6934231333150467    
     1.181330176852453        0.6850758797034652    
     1.186272980939701        0.6767830270224922    
     1.191215785026950        0.6685453476240943    
     1.196158589114199        0.6603635871846674    
     1.201101393201448        0.6522384647282151    
     1.206044197288697        0.6441706726648460    
     1.210987001375945        0.6361608768442876    
     1.215929805463194        0.6282097166241056    
     1.220872609550443        0.6203178049522869    
     1.225815413637692        0.6124857284638758    
     1.230758217724940        0.6047140475912935    
     1.235701021812189        0.5970032966880143    
     1.240643825899438        0.5893539841652130    
     1.245586629986687        0.5817665926410547    
     1.250529434073935        0.5742415791022193    
     1.255472238161184        0.5667793750773086    
     1.260415042248433        0.5593803868217471    
     1.265357846335682        0.5520449955137852    
     1.270300650422930        0.5447735574612224    
     1.275243454510179        0.5375664043184466    
     1.280186258597428        0.5304238433134105    
     1.285129062684677        0.5233461574841137    
     1.290071866771925        0.5163336059242293    
     1.295014670859174        0.5093864240374322    
     1.299957474946423        0.5025048238000546    
     1.304900279033672        0.4956889940316462    
     1.309843083120920        0.4889391006730374    
     1.314785887208169        0.4822552870715149    
     1.319728691295418        0.4756376742726743    
     1.324671495382667        0.4690863613185930    
     1.329614299469915        0.4626014255518727    
     1.334557103557164        0.4561829229252000    
     1.339499907644413        0.4498308883159974    
     1.344442711731662        0.4435453358457843    
     1.349385515818911        0.4373262592038716    
     1.354328319906159        0.4311736319749829    
     1.359271123993408        0.4250874079704411    
     1.364213928080657        0.4190675215625439    
     1.369156732167905        0.4131138880217520    
     1.374099536255154        0.4072264038563321    
     1.379042340342403        0.4014049471541066    
     1.383985144429652        0.3956493779259384    
     1.388927948516901        0.3899595384506324    
     1.393870752604149        0.3843352536209026    
     1.398813556691398        0.3787763312900790    
     1.403756360778647        0.3732825626192420    
     1.408699164865896        0.3678537224244641    
     1.413641968953144        0.3624895695238577    
     1.418584773040393        0.3571898470841350    
     1.423527577127642        0.3519542829664009    
     1.428470381214890        0.3467825900708904    
     1.433413185302139        0.3416744666803913    
     1.438355989389388        0.3366295968021046    
     1.443298793476637        0.3316476505076768    
     1.448241597563886        0.3267282842711786    
     1.453184401651134        0.3218711413048070    
     1.458127205738383        0.3170758518920901    
     1.463070009825632        0.3123420337183890    
     1.468012813912881        0.3076692921985034    
     1.472955618000129        0.3030572208012001    
     1.477898422087378        0.2985054013704929    
     1.482841226174627        0.2940134044435029    
     1.487784030261876        0.2895807895647611    
     1.492726834349124        0.2852071055968099    
     1.497669638436373        0.2808918910269680    
     1.502612442523622        0.2766346742701535    
     1.507555246610871        0.2724349739676456    
     1.512498050698119        0.2682922992817131    
     1.517440854785368        0.2642061501859955    
     1.522383658872617        0.2601760177515862    
     1.527326462959866        0.2562013844287505    
     1.532269267047115        0.2522817243242230    
     1.537212071134363        0.2484165034740537    
     1.542154875221612        0.2446051801119643    
     1.547097679308861        0.2408472049292158    
     1.552040483396109        0.2371420212652602    
     1.556983287483358        0.2334890654123578    
     1.561926091570607        0.2298877669975568    
     1.566868895657856        0.2263375492908546    
     1.571811699745105        0.2228378296851415    
     1.576754503832353        0.2193880194072079    
     1.581697307919602        0.2159875232203330    
     1.586640112006851        0.2126357394311006    
     1.591582916094100        0.2093320600716030    
     1.596525720181348        0.2060758725113395    
     1.601468524268597        0.2028665612502993    
     1.606411328355846        0.1997035097994371    
     1.611354132443094        0.1965861026214289    
     1.616296936530343        0.1935137269686844    
     1.621239740617592        0.1904857744914164    
     1.626182544704841        0.1875016425265146    
     1.631125348792090        0.1845607353406634    
     1.636068152879338        0.1816624639195791    
     1.641010956966587        0.1788062457220122    
     1.645953761053836        0.1759915042093628    
     1.650896565141085        0.1732176685084210    
     1.655839369228333        0.1704841736208631    
     1.660782173315582        0.1677904604589688    
     1.665724977402831        0.1651359759222942    
     1.670667781490080        0.1625201729416767    
     1.675610585577328        0.1599425104085800    
     1.680553389664577        0.1574024531530954    
     1.685496193751826        0.1548994719264933    
     1.690438997839075        0.1524330433814888    
     1.695381801926323        0.1500026500494227    
     1.700324606013572        0.1476077803160519    
     1.705267410100821        0.1452479283956311    
     1.710210214188070        0.1429225943033145    
     1.715153018275319        0.1406312838259598    
     1.720095822362567        0.1383735084914231    
     1.725038626449816        0.1361487855364276    
     1.729981430537065        0.1339566378730867    
     1.734924234624313        0.1317965940541484    
     1.739867038711562        0.1296681882370464    
     1.744809842798811        0.1275709601468212    
     1.749752646886060        0.1255044550379807    
     1.754695450973308        0.1234682236553652    
     1.759638255060557        0.1214618221940806    
     1.764581059147806        0.1194848122585601    
     1.769523863235055        0.1175367608208124    
     1.774466667322304        0.1156172401779107    
     1.779409471409552        0.1137258279087798    
     1.784352275496801        0.1118621068303294    
     1.789295079584050        0.1100256649529845    
     1.794237883671298        0.1082160954356611    
     1.799180687758547        0.1064329965402337    
     1.804123491845796        0.1046759715855341    
     1.809066295933045        0.1029446289009295    
     1.814009100020294        0.1012385817795180    
     1.818951904107542        0.9955744843097580E-01
     1.823894708194791        0.9790085193410189E-01
     1.828837512282040        0.9626842018909028E-01
     1.833780316369289        0.9465978586956122E-01
     1.838723120456537        0.9307458637439202E-01
     1.843665924543786        0.9151246377937342E-01
     1.848608728631035        0.8997306478871953E-01
     1.853551532718284        0.8845604068646613E-01
     1.858494336805532        0.8696104728778078E-01
     1.863437140892781        0.8548774489020883E-01
     1.868379944980030        0.8403579822488594E-01
     1.873322749067279        0.8260487640773792E-01
     1.878265553154527        0.8119465289068695E-01
     1.883208357241776        0.7980480541289380E-01
     1.888151161329025        0.7843501595205088E-01
     1.893093965416274        0.7708497067574591E-01
     1.898036769503523        0.7575435989291988E-01
     1.902979573590771        0.7444287800542904E-01
     1.907922377678020        0.7315022345973639E-01
     1.912865181765269        0.7187609869874470E-01
     1.917807985852517        0.7062021011378279E-01
     1.922750789939766        0.6938226799676783E-01
     1.927693594027015        0.6816198649255058E-01
     1.932636398114264        0.6695908355145845E-01
     1.937579202201512        0.6577328088205069E-01
     1.942522006288761        0.6460430390409433E-01
     1.947464810376010        0.6345188170177360E-01
     1.952407614463259        0.6231574697714350E-01
     1.957350418550508        0.6119563600383484E-01
     1.962293222637756        0.6009128858102306E-01
     1.967236026725005        0.5900244798766745E-01
     1.972178830812254        0.5792886093702806E-01
     1.977121634899502        0.5687027753147109E-01
     1.982064438986751        0.5582645121756556E-01
     1.987007243074000        0.5479713874148014E-01
     1.991950047161249        0.5378210010468836E-01
     1.996892851248498        0.5278109851998041E-01
     2.001835655335746        0.5179390036779659E-01
     2.006778459422995        0.5082027515287944E-01
     2.011721263510244        0.4985999546125152E-01
     2.016664067597493        0.4891283691752474E-01
     2.021606871684742        0.4797857814254092E-01
     2.026549675771990        0.4705700071135066E-01
     2.031492479859239        0.4614788911153082E-01
     2.036435283946488        0.4525103070184413E-01
     2.041378088033736        0.4436621567124461E-01
     2.046320892120985        0.4349323699822684E-01
     2.051263696208234        0.4263189041052583E-01
     2.056206500295483        0.4178197434516589E-01
     2.061149304382731        0.4094328990885884E-01
     2.066092108469980        0.4011564083875561E-01
     2.071034912557229        0.3929883346354943E-01
     2.075977716644477        0.3849267666493177E-01
     2.080920520731727        0.3769698183940168E-01
     2.085863324818975        0.3691156286042729E-01
     2.090806128906224        0.3613623604096167E-01
     2.095748932993473        0.3537082009630947E-01
     2.100691737080721        0.3461513610734633E-01
     2.105634541167970        0.3386900748409021E-01
     2.110577345255219        0.3313225992962102E-01
     2.115520149342468        0.3240472140435130E-01
     2.120462953429716        0.3168622209064365E-01
     2.125405757516965        0.3097659435777548E-01
     2.130348561604214        0.3027567272724840E-01
     2.135291365691462        0.2958329383844087E-01
     2.140234169778712        0.2889929641460376E-01
     2.145176973865960        0.2822352122919365E-01
     2.150119777953209        0.2755581107254589E-01
     2.155062582040458        0.2689601071888210E-01
     2.160005386127707        0.2624396689365141E-01
     2.164948190214955        0.2559952824120307E-01
     2.169890994302204        0.2496254529278759E-01
     2.174833798389453        0.2433287043488366E-01
     2.179776602476701        0.2371035787785026E-01
     2.184719406563950        0.2309486362489786E-01
     2.189662210651199        0.2248624544137940E-01
     2.194605014738448        0.2188436282439578E-01
     2.199547818825696        0.2128907697271424E-01
     2.204490622912946        0.2070025075699711E-01
     2.209433427000194        0.2011774869033594E-01
     2.214376231087443        0.1954143689909046E-01
     2.219319035174692        0.1897118309402777E-01
     2.224261839261940        0.1840685654175882E-01
     2.229204643349189        0.1784832803646832E-01
     2.234147447436438        0.1729546987200292E-01
     2.239090251523687        0.1674815582678361E-01
     2.244033055610935        0.1620626146494479E-01
     2.248975859698184        0.1566966651712707E-01
     2.253918663785433        0.1513826234875537E-01
     2.258861467872681        0.1461196488853027E-01
     2.263804271959931        0.1409072947913446E-01
     2.268747076047179        0.1357456335437450E-01
     2.273689880134428        0.1306353323689797E-01
     2.278632684221677        0.1255776759460625E-01
     2.283575488308925        0.1205745434626245E-01
     2.288518292396174        0.1156283527202068E-01
     2.293461096483423        0.1107419837370415E-01
     2.298403900570672        0.1059186921155253E-01
     2.303346704657920        0.1011620197721578E-01
     2.308289508745169        0.9647570820338581E-02
     2.313232312832418        0.9186361752866997E-02
     2.318175116919666        0.8732965312564737E-02
     2.323117921006915        0.8287770067578684E-02
     2.328060725094164        0.7851156977476934E-02
     2.333003529181413        0.7423494584115619E-02
     2.337946333268662        0.7005134980713563E-02
     2.342889137355911        0.6596410494179750E-02
     2.347831941443159        0.6197631010075934E-02
     2.352774745530408        0.5809081868800164E-02
     2.357717549617657        0.5431022263717336E-02
     2.362660353704905        0.5063684075701788E-02
     2.367603157792154        0.4707271083004641E-02
     2.372545961879403        0.4361958489888219E-02
     2.377488765966652        0.4027892721640480E-02
     2.382431570053900        0.3705191437024432E-02
     2.387374374141149        0.3393943711587464E-02
     2.392317178228398        0.3094210346101964E-02
     2.397259982315647        0.2806024253114599E-02
     2.402202786402896        0.2529390870105256E-02
     2.407145590490144        0.2264288538373906E-02
     2.412088394577393        0.2010668769353689E-02
     2.417031198664642        0.1768456288867065E-02
     2.421974002751891        0.1537548693734247E-02
     2.426916806839139        0.1317815451444469E-02
     2.431859610926388        0.1109095773044125E-02
     2.436802415013637        0.9111944767904451E-03
     2.441745219100885        0.7238740390713439E-03
     2.446688023188134        0.5468387386479077E-03
     2.451630827275383        0.3797001924211996E-03
     2.456573631362632        0.2218897777600997E-03
     2.461516435449881        0.7235355010497549E-04
     2.466459239537129         0.000000000000000    
  0  6  1  0  2.000000   #orbital l, n, z, is_polarized, population
 500    0.1065575457643037E-01     5.317221533638754     # npts, delta, cutoff
     0.000000000000000         1.663719074898592    
    0.1065575457643037E-01     1.663458923463437    