<preamble>

<basis_specs>
===============================================================================
I                    Z=  53    Mass=  126.90        Charge= 0.17977+309
Lmxo=2 Lmxkb= 2    BasisType=split      Semic=F
L=0  Nsemic=0  Cnfigmx=5
          i=1  nzeta=2  polorb=0  (5s)
            splnorm:   0.15000    
               vcte:    40.000    
               rinn:    4.5018    
               qcoe:    0.0000    
               qyuk:    0.0000    
               qwid:   0.10000E-01
                rcs:    4.9970      3.4450    
            lambdas:    1.0000      1.0000    
L=1  Nsemic=0  Cnfigmx=5
          i=1  nzeta=2  polorb=1  (5p)  (to be polarized perturbatively)
            splnorm:   0.15000    
               vcte:    40.000    
               rinn:    5.6910    
               qcoe:    0.0000    
               qyuk:    0.0000    
               qwid:   0.10000E-01
                rcs:    6.3170      4.4263    
            lambdas:    1.0000      1.0000    
L=2  Nsemic=0  Cnfigmx=5
          i=1  nzeta=0  polorb=0  (5d)  (perturbative polarization orbital) (from 5p)
-------------------------------------------------------------------------------
L=0  Nkbl=1  erefs: 0.17977+309
L=1  Nkbl=1  erefs: 0.17977+309
L=2  Nkbl=1  erefs: 0.17977+309
===============================================================================
</basis_specs>

<pseudopotential_header>
 I  pw nrl pcec
 ONCVPSP-3.2018-03-09Hamann's oncvpsp                        
 5s 2.00  r= 2.02/5p 5.00  r= 2.17/5d 0.00  r= 2.28/                    5s:5p:
</pseudopotential_header>
</preamble>
I                             # Symbol
I                             # Label
   53                         # Atomic number
     7.00000000000                             # Valence charge
     126.900000000        # Mass 
     42.0193522317        # Self energy 
   2   5                      # Lmax for basis, no. of nl orbitals 
   2   6                      # Lmax for projectors, no. of nl KB projectors
# PAOs:__________________________
  0  5  1  0  2.000000   #orbital l, n, z, is_polarized, population
 500    0.1001395662046502E-01     4.996964353612044     # npts, delta, cutoff
     0.000000000000000        0.8034659896310146E-01
    0.1001395662046502E-01    0.8042598087016818E-01
    0.2002791324093003E-01    0.8066682074986138E-01
    0.3004186986139505E-01    0.8106784270852697E-01
    0.4005582648186007E-01    0.8162847999600648E-01
    0.5006978310232509E-01    0.8234794179500068E-01
    0.6008373972279010E-01    0.8322521540616415E-01
    0.7009769634325512E-01    0.8425906922018893E-01
    0.8011165296372014E-01    0.8544805634823896E-01
    0.9012560958418515E-01    0.8679051888362931E-01
    0.1001395662046502        0.8828459277562883E-01
    0.1101535228251152        0.8992821329581364E-01
    0.1201674794455802        0.9171912107560427E-01
    0.1301814360660452        0.9365486869159298E-01
    0.1401953926865102        0.9573282777324332E-01
    0.1502093493069753        0.9795019660559580E-01
    0.1602233059274403        0.1003040081977638    
    0.1702372625479053        0.1027911387862791    
    0.1802512191683703        0.1054083167407352    
    0.1902651757888353        0.1081521318377097    
    0.2002791324093003        0.1110190448676110    
    0.2102930890297653        0.1140053975379092    
    0.2203070456502304        0.1171074226351707    
    0.2303210022706954        0.1203212544074343    
    0.2403349588911604        0.1236429391277375    
    0.2503489155116254        0.1270684457990367    
    0.2603628721320904        0.1305936769603623    
    0.2703768287525555        0.1342144795538074    
    0.2803907853730205        0.1379266558118773    
    0.2904047419934855        0.1417259741248180    
    0.3004186986139505        0.1456081798477952    
    0.3104326552344155        0.1495690060082169    
    0.3204466118548805        0.1536041838740722    
    0.3304605684753456        0.1577094533448998    
    0.3404745250958106        0.1618805731278906    
    0.3504884817162756        0.1661133306626819    
    0.3605024383367406        0.1704035517595865    
    0.3705163949572056        0.1747471099173403    
    0.3805303515776707        0.1791399352879197    
    0.3905443081981357        0.1835780232575794    
    0.4005582648186007        0.1880574426149860    
    0.4105722214390657        0.1925743432791533    
    0.4205861780595307        0.1971249635618366    
    0.4306001346799957        0.2017056369410766    
    0.4406140913004608        0.2063127983247210    
    0.4506280479209258        0.2109429897849595    
    0.4606420045413908        0.2155928657471903    
    0.4706559611618558        0.2202591976188835    
    0.4806699177823208        0.2249388778464956    
    0.4906838744027858        0.2296289233909255    
    0.5006978310232508        0.2343264786144724    
    0.5107117876437158        0.2390288175747359    
    0.5207257442641808        0.2437333457233932    
    0.5307397008846459        0.2484376010102865    
    0.5407536575051110        0.2531392543957312    
    0.5507676141255760        0.2578361097764153    
    0.5607815707460410        0.2625261033326859    
    0.5707955273665060        0.2672073023074100    
    0.5808094839869710        0.2718779032289146    
    0.5908234406074360        0.2765362295927918    
    0.6008373972279011        0.2811807290195491    
    0.6108513538483661        0.2858099699071908    
    0.6208653104688311        0.2904226375998564    
    0.6308792670892961        0.2950175300955605    
    0.6408932237097611        0.2995935533179031    
    0.6509071803302261        0.3041497159783239    
    0.6609211369506911        0.3086851240570698    
    0.6709350935711561        0.3131989749324990    
    0.6809490501916211        0.3176905511896693    
    0.6909630068120862        0.3221592141403654    
    0.7009769634325512        0.3266043970877470    
    0.7109909200530162        0.3310255983697183    
    0.7210048766734812        0.3354223742158584    
    0.7310188332939462        0.3397943314533579    
    0.7410327899144112        0.3441411200978562    
    0.7510467465348762        0.3484624258653445    
    0.7610607031553414        0.3527579626414530    
    0.7710746597758064        0.3570274649443997    
    0.7810886163962714        0.3612706804177030    
    0.7911025730167364        0.3654873623884288    
    0.8011165296372014        0.3696772625262336    
    0.8111304862576664        0.3738401236378597    
    0.8211444428781314        0.3779756726309195    
    0.8311583994985964        0.3820836136798905    
    0.8411723561190614        0.3861636216261824    
    0.8511863127395265        0.3902153356429136    
    0.8612002693599915        0.3942383531937350    
    0.8712142259804565        0.3982322243135549    
    0.8812281826009215        0.4021964462374781    
    0.8912421392213865        0.4061304584025895    
    0.9012560958418515        0.4100336378454315    
    0.9112700524623165        0.4139052950161652    
    0.9212840090827816        0.4177446700284529    
    0.9312979657032466        0.4215509293620769    
    0.9413119223237116        0.4253231630332035    
    0.9513258789441766        0.4290603822450699    
    0.9613398355646416        0.4327615175296662    
    0.9713537921851066        0.4364254173887469    
    0.9813677488055716        0.4400508474402484    
    0.9913817054260367        0.4436364900739164    
     1.001395662046502        0.4471809446176340    
     1.011409618666967        0.4506827280136880    
     1.021423575287432        0.4541402760019042    
     1.031437531907897        0.4575519448043486    
     1.041451488528362        0.4609160133040612    
     1.051465445148827        0.4642306857081071    
     1.061479401769292        0.4674940946830971    
     1.071493358389757        0.4707043049492639    
     1.081507315010222        0.4738593173172193    
     1.091521271630687        0.4769570716589695    
     1.101535228251152        0.4799954530382225    
     1.111549184871617        0.4829722983698945    
     1.121563141492082        0.4858854008537524    
     1.131577098112547        0.4887325159214209    
     1.141591054733012        0.4915113674927644    
     1.151605011353477        0.4942196545146497    
     1.161618967973942        0.4968550577534872    
     1.171632924594407        0.4994152468118817    
     1.181646881214872        0.5018978873387913    
     1.191660837835337        0.5043006484017966    
     1.201674794455802        0.5066212099894278    
     1.211688751076267        0.5088572706109751    
     1.221702707696732        0.5110065549608278    
     1.231716664317197        0.5130668216141820    
     1.241730620937662        0.5150358707208331    
     1.251744577558127        0.5169115516638696    
     1.261758534178592        0.5186917706502554    
     1.271772490799057        0.5203744982006464    
     1.281786447419522        0.5219577765062732    
     1.291800404039987        0.5234397266213410    
     1.301814360660452        0.5248185554601492    
     1.311828317280917        0.5260925625690357    
     1.321842273901382        0.5272601466442457    
     1.331856230521847        0.5283198117679756    
     1.341870187142312        0.5292701733360815    
     1.351884143762777        0.5301099636523141    
     1.361898100383242        0.5308380371653918    
     1.371912057003707        0.5314533753268095    
     1.381926013624172        0.5319550910488955    
     1.391939970244637        0.5323424327444023    
     1.401953926865102        0.5326147879307076    
     1.411967883485567        0.5327716863835603    
     1.421981840106032        0.5328128028272779    
     1.431995796726497        0.5327379591502525    
     1.442009753346962        0.5325471261366529    
     1.452023709967428        0.5322404247072769    
     1.462037666587892        0.5318181266645791    
     1.472051623208358        0.5312806549389757    
     1.482065579828822        0.5306285833356555    
     1.492079536449288        0.5298626357831885    
     1.502093493069752        0.5289836850873194    
     1.512107449690218        0.5279927511953760    
     1.522121406310683        0.5268909989787592    
     1.532135362931148        0.5256797355429575    
     1.542149319551613        0.5243604070764649    
     1.552163276172078        0.5229345952518624    
     1.562177232792543        0.5214040131941416    
     1.572191189413008        0.5197705010321545    
     1.582205146033473        0.5180360216853831    
     1.592219102653938        0.5162026537444037    
     1.602233059274403        0.5142725877938497    
     1.612247015894868        0.5122481198669666    
     1.622260972515333        0.5101316452246635    
     1.632274929135798        0.5079256518522226    
     1.642288885756263        0.5056327136991424    
     1.652302842376728        0.5032554836895009    
     1.662316798997193        0.5007966865310512    
     1.672330755617658        0.4982591113519630    
     1.682344712238123        0.4956456041946896    
     1.692358668858588        0.4929590603968794    
     1.702372625479053        0.4902024168895705    
     1.712386582099518        0.4873786444430833    
     1.722400538719983        0.4844907398910760    
     1.732414495340448        0.4815417183631563    
     1.742428451960913        0.4785346055562212    
     1.752442408581378        0.4754724300743787    
     1.762456365201843        0.4723582158668212    
     1.772470321822308        0.4691949747924630    
     1.782484278442773        0.4659856993394179    
     1.792498235063238        0.4627333555266084    
     1.802512191683703        0.4594408760138297    
     1.812526148304168        0.4561111534455884    
     1.822540104924633        0.4527470340528560    
     1.832554061545098        0.4493513115356799    
     1.842568018165563        0.4459267212482254    
     1.852581974786028        0.4424759347064452    
     1.862595931406493        0.4390015544370499    
     1.872609888026958        0.4355061091849161    
     1.882623844647423        0.4319920494944287    
     1.892637801267888        0.4284617436785682    
     1.902651757888353        0.4249174741878442    
     1.912665714508818        0.4213614343893676    
     1.922679671129283        0.4177957257645952    
     1.932693627749748        0.4142223555324042    
     1.942707584370213        0.4106432347023419    
     1.952721540990678        0.4070601765585421    
     1.962735497611143        0.4034748954530584    
     1.972749454231608        0.3998890062804114    
     1.982763410852073        0.3963040249730362    
     1.992777367472538        0.3927213687793721    
     2.002791324093003        0.3891423539410974    
     2.012805280713469        0.3855681953536382    
     2.022819237333934        0.3820000141894873    
     2.032833193954398        0.3784388516633592    
     2.042847150574863        0.3748856842321639    
     2.052861107195329        0.3713414381532844    
     2.062875063815794        0.3678070011742984    
     2.072889020436258        0.3642832258437985    
     2.082902977056723        0.3607709279345671    
     2.092916933677189        0.3572708855104275    
     2.102930890297654        0.3537838407647698    
     2.112944846918118        0.3503105017771613    
     2.122958803538584        0.3468515435563404    
     2.132972760159049        0.3434076090038947    
     2.142986716779514        0.3399793099447662    
     2.153000673399978        0.3365672281327460    
     2.163014630020444        0.3331719162273658    
     2.173028586640909        0.3297938987437506    
     2.183042543261374        0.3264336729761624    
     2.193056499881839        0.3230917098958440    
     2.203070456502304        0.3197684550237528    
     2.213084413122769        0.3164643292788116    
     2.223098369743234        0.3131797298022391    
     2.233112326363699        0.3099150307585317    
     2.243126282984164        0.3066705841136708    
     2.253140239604629        0.3034467203911163    
     2.263154196225094        0.3002437494061229    
     2.273168152845559        0.2970619609789142    
     2.283182109466024        0.2939016256272512    
     2.293196066086489        0.2907629952389047    
     2.303210022706954        0.2876463037245446    
     2.313223979327419        0.2845517676515334    
     2.323237935947884        0.2814795868591146    
     2.333251892568349        0.2784299450554795    
     2.343265849188814        0.2754030103971720    
     2.353279805809279        0.2723989360512921    
     2.363293762429744        0.2694178607409490    
     2.373307719050209        0.2664599092743969    
     2.383321675670674        0.2635251930582887    
     2.393335632291139        0.2606138105954638    
     2.403349588911604        0.2577258479676811    
     2.413363545532069        0.2548613793037028    
     2.423377502152534        0.2520204672331145    
     2.433391458772999        0.2492031633262746    
     2.443405415393464        0.2464095085207572    
     2.453419372013929        0.2436395335346684    
     2.463433328634394        0.2408932592671797    
     2.473447285254859        0.2381706971866382    
     2.483461241875324        0.2354718497065925    
     2.493475198495789        0.2327967105500639    
     2.503489155116254        0.2301452651023948    
     2.513503111736719        0.2275174907529834    
     2.523517068357184        0.2249133572262245    
     2.533531024977649        0.2223328269019478    
     2.543544981598114        0.2197758551256586    
     2.553558938218579        0.2172423905088596    
     2.563572894839044        0.2147323752197420    
     2.573586851459509        0.2122457452645125    
     2.583600808079975        0.2097824307596267    
     2.593614764700440        0.2073423561951896    
     2.603628721320904        0.2049254406897689    
     2.613642677941369        0.2025315982368805    
     2.623656634561835        0.2001607379433726    
     2.633670591182300        0.1978127642599536    
     2.643684547802764        0.1954875772040849    
     2.653698504423230        0.1931850725754635    
     2.663712461043695        0.1909051421643131    
     2.673726417664160        0.1886476739526859    
     2.683740374284624        0.1864125523089928    
     2.693754330905090        0.1841996581759499    
     2.703768287525555        0.1820088692521400    
     2.713782244146020        0.1798400601673849    
     2.723796200766484        0.1776931026520965    
     2.733810157386950        0.1755678657008043    
     2.743824114007415        0.1734642157300202    
     2.753838070627880        0.1713820167306147    
     2.763852027248345        0.1693211304148722    
     2.773865983868810        0.1672814163583794    
     2.783879940489275        0.1652627321369076    
     2.793893897109740        0.1632649334584425    
     2.803907853730205        0.1612878742904987    
     2.813921810350670        0.1593314069828780    
     2.823935766971135        0.1573953823859942    
     2.833949723591600        0.1554796499649137    
     2.843963680212065        0.1535840579092362    
     2.853977636832530        0.1517084532389447    
     2.863991593452995        0.1498526819063502    
     2.874005550073460        0.1480165888942521    
     2.884019506693925        0.1462000183104333    
     2.894033463314390        0.1444028134785972    
     2.904047419934855        0.1426248170258671    
     2.914061376555320        0.1408658709669512    
     2.924075333175785        0.1391258167850754    
     2.934089289796250        0.1374044955097894    
     2.944103246416715        0.1357017477917442    
     2.954117203037180        0.1340174139745371    
     2.964131159657645        0.1323513341637121    
     2.974145116278110        0.1307033482930166    
     2.984159072898575        0.1290732961879915    
     2.994173029519040        0.1274610176269874    
     3.004186986139505        0.1258663523996846    
     3.014200942759970        0.1242891403632007    
     3.024214899380435        0.1227292214958642    
     3.034228856000900        0.1211864359487235    
     3.044242812621365        0.1196606240948737    
     3.054256769241830        0.1181516265766666    
     3.064270725862295        0.1166592843508735    
     3.074284682482760        0.1151834387318722    
     3.084298639103225        0.1137239314329152    
     3.094312595723690        0.1122806046055519    
     3.104326552344155        0.1108533008772586    
     3.114340508964620        0.1094418633873393    
     3.124354465585085        0.1080461358211554    
     3.134368422205550        0.1066659624427364    
     3.144382378826015        0.1053011881258308    
     3.154396335446481        0.1039516583834465    
     3.164410292066945        0.1026172193959332    
     3.174424248687410        0.1012977180376555    
     3.184438205307875        0.9999300190230442E-01
     3.194452161928341        0.9870291932689522E-01
     3.204466118548805        0.9742731941449577E-01
     3.214480075169270        0.9616605205572930E-01
     3.224494031789736        0.9491896794909208E-01
     3.234507988410201        0.9368591862013130E-01
     3.244521945030665        0.9246675643951870E-01
     3.254535901651130        0.9126133464006111E-01
     3.264549858271596        0.9006950733268439E-01
     3.274563814892061        0.8889112952142703E-01
     3.284577771512526        0.8772605711747743E-01
     3.294591728132991        0.8657414695229272E-01
     3.304605684753456        0.8543525678982648E-01
     3.314619641373921        0.8430924533790145E-01
     3.324633597994386        0.8319597225875720E-01
     3.334647554614851        0.8209529817880153E-01
     3.344661511235316        0.8100708469759704E-01
     3.354675467855781        0.7993119439610645E-01
     3.364689424476246        0.7886749084423009E-01
     3.374703381096711        0.7781583860765716E-01
     3.384717337717176        0.7677610325405669E-01
     3.394731294337641        0.7574815135863656E-01
     3.404745250958106        0.7473185050908951E-01
     3.414759207578571        0.7372706930995360E-01
     3.424773164199036        0.7273367738640624E-01
     3.434787120819501        0.7175154538751562E-01
     3.444801077439966        0.7078054498896956E-01
     3.454815034060431        0.6982054889530349E-01
     3.464828990680896        0.6887143084164339E-01
     3.474842947301361        0.6793306559498841E-01
     3.484856903921826        0.6700532895504764E-01
     3.494870860542291        0.6608809775464876E-01
     3.504884817162756        0.6518124985973806E-01
     3.514898773783221        0.6428466416898694E-01
     3.524912730403686        0.6339822061302172E-01
     3.534926687024151        0.6252180015329126E-01
     3.544940643644616        0.6165528478058889E-01
     3.554954600265081        0.6079855751324229E-01
     3.564968556885546        0.5995150239498628E-01
     3.574982513506011        0.5911400449253025E-01
     3.584996470126476        0.5828594989283603E-01
     3.595010426746941        0.5746722570011771E-01
     3.605024383367406        0.5665772003257399E-01
     3.615038339987871        0.5585732201886878E-01
     3.625052296608336        0.5506592179436789E-01
     3.635066253228801        0.5428341049714480E-01
     3.645080209849266        0.5350968026376642E-01
     3.655094166469731        0.5274462422486758E-01
     3.665108123090196        0.5198813650052630E-01
     3.675122079710661        0.5124011219544787E-01
     3.685136036331127        0.5050044739396829E-01
     3.695149992951591        0.4976903915488462E-01
     3.705163949572056        0.4904578550612283E-01
     3.715177906192521        0.4833058543925022E-01
     3.725191862812987        0.4762333890384027E-01
     3.735205819433451        0.4692394680169945E-01
     3.745219776053916        0.4623231098096110E-01
     3.755233732674381        0.4554833423005604E-01
     3.765247689294847        0.4487192027156536E-01
     3.775261645915311        0.4420297375596270E-01
     3.785275602535776        0.4354140025525239E-01
     3.795289559156242        0.4288710625651005E-01
     3.805303515776707        0.4223999915533169E-01
     3.815317472397171        0.4159998724919651E-01
     3.825331429017636        0.4096697973074968E-01
     3.835345385638102        0.4034088668101068E-01
     3.845359342258567        0.3972161906251145E-01
     3.855373298879031        0.3910908871237105E-01
     3.865387255499497        0.3850320833530919E-01
     3.875401212119962        0.3790389149660625E-01
     3.885415168740427        0.3731105261501191E-01
     3.895429125360891        0.3672460695560787E-01
     3.905443081981357        0.3614447062262805E-01
     3.915457038601822        0.3557056055224209E-01
     3.925470995222287        0.3500279450530262E-01
     3.935484951842752        0.3444109106006360E-01
     3.945498908463217        0.3388536960487175E-01
     3.955512865083682        0.3333555033083276E-01
     3.965526821704147        0.3279155422445884E-01
     3.975540778324612        0.3225330306029901E-01
     3.985554734945077        0.3172071939355403E-01
     3.995568691565542        0.3119372655268123E-01
     4.005582648186007        0.3067224863199057E-01
     4.015596604806472        0.3015621048423468E-01
     4.025610561426937        0.2964553771319574E-01
     4.035624518047402        0.2914015666627153E-01
     4.045638474667867        0.2863999442706296E-01
     4.055652431288332        0.2814497880796545E-01
     4.065666387908797        0.2765503834276568E-01
     4.075680344529262        0.2717010227924745E-01
     4.085694301149727        0.2669010057180575E-01
     4.095708257770192        0.2621496387407360E-01
     4.105722214390657        0.2574462353156295E-01
     4.115736171011122        0.2527901157431892E-01
     4.125750127631587        0.2481806070959289E-01
     4.135764084252052        0.2436170431453257E-01
     4.145778040872517        0.2390987642889266E-01
     4.155791997492982        0.2346251174776643E-01
     4.165805954113447        0.2301954561433997E-01
     4.175819910733912        0.2258091401267013E-01
     4.185833867354377        0.2214655356048756E-01
     4.195847823974842        0.2171640150202635E-01
     4.205861780595307        0.2129039570087960E-01
     4.215875737215772        0.2086847463288486E-01
     4.225889693836237        0.2045057737903796E-01
     4.235903650456702        0.2003664361843644E-01
     4.245917607077168        0.1962661362125506E-01
     4.255931563697632        0.1922042824175247E-01
     4.265945520318097        0.1881802891130991E-01
     4.275959476938563        0.1841935763150441E-01
     4.285973433559027        0.1802435696721431E-01
     4.295987390179492        0.1763297003976089E-01
     4.306001346799957        0.1724514052008349E-01
     4.316015303420422        0.1686081262195147E-01
     4.326029260040888        0.1647993109521179E-01
     4.336043216661352        0.1610244121907301E-01
     4.346057173281817        0.1572828879542628E-01
     4.356071129902283        0.1535742014220398E-01
     4.366085086522747        0.1498978208677615E-01
     4.376099043143213        0.1462532195938385E-01
     4.386112999763678        0.1426398758661245E-01
     4.396126956384142        0.1390572728490246E-01
     4.406140913004608        0.1355048985409914E-01
     4.416154869625073        0.1319822457104165E-01
     4.426168826245537        0.1284888118319060E-01
     4.436182782866003        0.1250240990229579E-01
     4.446196739486467        0.1215876139810233E-01
     4.456210696106933        0.1181788679209717E-01
     4.466224652727398        0.1147973765129482E-01
     4.476238609347862        0.1114426598206261E-01
     4.486252565968328        0.1081142422398578E-01
     4.496266522588793        0.1048116524377163E-01
     4.506280479209257        0.1015344232919479E-01
     4.516294435829723        0.9828209183079830E-02
     4.526308392450188        0.9505419917326388E-02
     4.536322349070653        0.9185029048711052E-02
     4.546336305691118        0.8866991591767783E-02
     4.556350262311582        0.8551264254539580E-02
     4.566364218932048        0.8237810708883053E-02
     4.576378175552513        0.7926613099489435E-02
     4.586392132172977        0.7617687528886420E-02
     4.596406088793443        0.7311098682266331E-02
     4.606420045413908        0.7006969838648425E-02
     4.616434002034373        0.6705486894978101E-02
     4.626447958654838        0.6406896841864683E-02
     4.636461915275303        0.6111501984245179E-02
     4.646475871895768        0.5819651369262934E-02
     4.656489828516233        0.5531730707565415E-02
     4.666503785136698        0.5248151781706679E-02
     4.676517741757163        0.4969342043669078E-02
     4.686531698377628        0.4695734859292588E-02
     4.696545654998093        0.4427760670899150E-02
     4.706559611618558        0.4165839215233311E-02
     4.716573568239023        0.3910372841753308E-02
     4.726587524859488        0.3661740915814782E-02
     4.736601481479953        0.3420295253556965E-02
     4.746615438100418        0.3186356513429724E-02
     4.756629394720883        0.2960211458200070E-02
     4.766643351341348        0.2742110997292562E-02
     4.776657307961814        0.2532268919883969E-02
     4.786671264582278        0.2330861232518953E-02
     4.796685221202743        0.2138026019932415E-02
     4.806699177823209        0.1953863753435969E-02
     4.816713134443673        0.1778437977090868E-02
     4.826727091064138        0.1611776307560030E-02
     4.836741047684603        0.1453871688703341E-02
     4.846755004305068        0.1304683846395593E-02
     4.856768960925534        0.1164140892390097E-02
     4.866782917545998        0.1032141027910974E-02
     4.876796874166463        0.9085542973385093E-03
     4.886810830786929        0.7932243386813675E-03
     4.896824787407393        0.6859700683283200E-03
     4.906838744027858        0.5865872187158937E-03
     4.916852700648324        0.4948496107298351E-03
     4.926866657268788        0.4105099702872654E-03
     4.936880613889254        0.3332999506358820E-03
     4.946894570509718        0.2629286996438229E-03
     4.956908527130183        0.1990785429402141E-03
     4.966922483750649        0.1413942787769904E-03
     4.976936440371113        0.8945588296529709E-04
     4.986950396991578        0.4269575720455483E-04
     4.996964353612044         0.000000000000000    
  0  5  2  0  0.000000   #orbital l, n, z, is_polarized, population
 500    0.6903858552727069E-02     3.445025417810807     # npts, delta, cutoff
     0.000000000000000       -0.3112975575155169    
    0.6903858552727069E-02   -0.3112221243448863    
    0.1380771710545414E-01   -0.3109902917661513    
    0.2071157565818121E-01   -0.3106040725926816    
    0.2761543421090827E-01   -0.3100637226324952    
    0.3451929276363534E-01   -0.3093695987026240    
    0.4142315131636241E-01   -0.3085221585768941    
    0.4832700986908948E-01   -0.3075219604057470    
    0.5523086842181655E-01   -0.3063696619470189    
    0.6213472697454362E-01   -0.3050660196466555    
    0.6903858552727068E-01   -0.3036118875785737    
    0.7594244407999776E-01   -0.3020082162476773    
    0.8284630263272483E-01   -0.3002560512589175    
    0.8975016118545190E-01   -0.2983565318551122    
    0.9665401973817896E-01   -0.2963108893263287    
    0.1035578782909060       -0.2941204452938080    
    0.1104617368436331       -0.2917866098716091    
    0.1173655953963602       -0.2893108797093631    
    0.1242694539490872       -0.2866948359197298    
    0.1311733125018143       -0.2839401418943632    
    0.1380771710545414       -0.2810485410123790    
    0.1449810296072684       -0.2780218542455166    