<preamble>

<basis_specs>
===============================================================================
K                    Z=  19    Mass=  39.098        Charge= 0.17977+309
Lmxo=1 Lmxkb= 2    BasisType=split      Semic=T
L=0  Nsemic=1  Cnfigmx=4
          i=1  nzeta=1  polorb=0  (3s)  (semicore shell)
            splnorm:   0.15000    
               vcte:    40.000    
               rinn:    3.3094    
               qcoe:    0.0000    
               qyuk:    0.0000    
               qwid:   0.10000E-01
                rcs:    3.6771    
            lambdas:    1.0000    
          i=2  nzeta=2  polorb=0  (4s)  (to be polarized non-perturbatively)
            splnorm:   0.15000    
               vcte:    40.000    
               rinn:    9.5403    
               qcoe:    0.0000    
               qyuk:    0.0000    
               qwid:   0.10000E-01
                rcs:    10.590      7.9851    
            lambdas:    1.0000      1.0000    
L=1  Nsemic=1  Cnfigmx=4
          i=1  nzeta=1  polorb=0  (3p)  (semicore shell)
            splnorm:   0.15000    
               vcte:    40.000    
               rinn:    3.8968    
               qcoe:    0.0000    
               qyuk:    0.0000    
               qwid:   0.10000E-01
                rcs:    4.3255    
            lambdas:    1.0000    
          i=2  nzeta=1  polorb=0  (4p)  (non-perturbative polarization shell)
            splnorm:   0.15000    
               vcte:    40.000    
               rinn:    9.5403    
               qcoe:    0.0000    
               qyuk:    0.0000    
               qwid:   0.10000E-01
                rcs:    10.590    
            lambdas:    1.0000    
-------------------------------------------------------------------------------
L=0  Nkbl=2  erefs: 0.17977+309 0.17977+309
L=1  Nkbl=2  erefs: 0.17977+309 0.17977+309
L=2  Nkbl=1  erefs: 0.17977+309
===============================================================================
</basis_specs>

<pseudopotential_header>
 K  pw nrl pcec
 ONCVPSP-3.2018-03-09Hamann's oncvpsp                        
 3s 2.00  r= 1.36/3p 6.00  r= 1.46/3d 0.00  r= 1.61/                    3s:3p:4s:
</pseudopotential_header>
</preamble>
K                             # Symbol
K                             # Label
   19                         # Atomic number
     9.00000000000                             # Valence charge
     39.0980000000        # Mass 
     115.469806557        # Self energy 
   1   5                      # Lmax for basis, no. of nl orbitals 
   2   6                      # Lmax for projectors, no. of nl KB projectors
# PAOs:__________________________
  0  3  1  0  2.000000   #orbital l, n, z, is_polarized, population
 500    0.7368860829846833E-02     3.677061554093570     # npts, delta, cutoff
     0.000000000000000        0.1865146517624258    
    0.7368860829846833E-02    0.1867023040707508    
    0.1473772165969367E-01    0.1872734514587210    
    0.2210658248954050E-01    0.1882247442171722    
    0.2947544331938733E-01    0.1895552489646766    
    0.3684430414923417E-01    0.1912636614769902    
    0.4421316497908100E-01    0.1933483074251136    
    0.5158202580892783E-01    0.1958071440476861    
    0.5895088663877467E-01    0.1986377622832458    
    0.6631974746862150E-01    0.2018373893097629    
    0.7368860829846834E-01    0.2054028914810126    
    0.8105746912831517E-01    0.2093307776569638    
    0.8842632995816199E-01    0.2136172029271920    
    0.9579519078800883E-01    0.2182579727267851    
    0.1031640516178557        0.2232485473442606    
    0.1105329124477025        0.2285840468208756    
    0.1179017732775493        0.2342592562404954    
    0.1252706341073962        0.2402686314088963    
    0.1326394949372430        0.2466063049210109    
    0.1400083557670898        0.2532660926142243    
    0.1473772165969367        0.2602415004053562    
    0.1547460774267835        0.2675257315084332    
    0.1621149382566303        0.2751116940297810    
    0.1694837990864772        0.2829920089363308    
    0.1768526599163240        0.2911590183923416    
    0.1842215207461708        0.2996047944590124    
    0.1915903815760177        0.3083211481506712    
    0.1989592424058645        0.3172996388403988    
    0.2063281032357113        0.3265315840070927    
    0.2136969640655582        0.3360080693150590    
    0.2210658248954050        0.3457199590163100    
    0.2284346857252518        0.3556579066647734    
    0.2358035465550987        0.3658123661306620    
    0.2431724073849455        0.3761736029022509    
    0.2505412682147923        0.3867317056613241    
    0.2579101290446392        0.3974765981175508    
    0.2652789898744860        0.4083980510860688    
    0.2726478507043328        0.4194856947915609    
    0.2800167115341797        0.4307290313811735    
    0.2873855723640265        0.4421174476276604    
    0.2947544331938733        0.4536402278032697    
    0.3021232940237202        0.4652865667039929    
    0.3094921548535670        0.4770455828030088    
    0.3168610156834138        0.4889063315113677    
    0.3242298765132607        0.5008578185232619    
    0.3315987373431075        0.5128890132225858    
    0.3389675981729544        0.5249888621269130    
    0.3463364590028012        0.5371463023445111    
    0.3537053198326480        0.5493502750196104    
    0.3610741806624948        0.5615897387407860    
    0.3684430414923416        0.5738536828870848    
    0.3758119023221885        0.5861311408863435    
    0.3831807631520353        0.5984112033601169    
    0.3905496239818821        0.6106830311296277    
    0.3979184848117290        0.6229358680573086    
    0.4052873456415758        0.6351590536987267    
    0.4126562064714226        0.6473420357399950    
    0.4200250673012695        0.6594743821962374    
    0.4273939281311163        0.6715457933471498    
    0.4347627889609632        0.6835461133863745    
    0.4421316497908100        0.6954653417620837    
    0.4495005106206568        0.7072936441869970    
    0.4568693714505037        0.7190213632969548    
    0.4642382322803505        0.7306390289381415    
    0.4716070931101973        0.7421373680641434    
    0.4789759539400442        0.7535073142251321    
    0.4863448147698910        0.7647400166327067    
    0.4937136755997378        0.7758268487851820    
    0.5010825364295847        0.7867594166394625    
    0.5084513972594314        0.7975295663170129    
    0.5158202580892783        0.8081293913328667    
    0.5231891189191251        0.8185512393381047    
    0.5305579797489720        0.8287877183676977    
    0.5379268405788188        0.8388317025871628    
    0.5452957014086657        0.8486763375329924    
    0.5526645622385125        0.8583150448433654    
    0.5600334230683593        0.8677415264772024    
    0.5674022838982061        0.8769497684211265    
    0.5747711447280530        0.8859340438854429    
    0.5821400055578998        0.8946889159917079    
    0.5895088663877467        0.9032092399559334    
    0.5968777272175935        0.9114901647728789    
    0.6042465880474404        0.9195271344082653    
    0.6116154488772871        0.9273158885070584    
    0.6189843097071340        0.9348524626272113    
    0.6263531705369808        0.9421331880094905    
    0.6337220313668277        0.9491546908950799    
    0.6410908921966745        0.9559138914037506    
    0.6484597530265214        0.9624080019863357    
    0.6558286138563681        0.9686345254661123    
    0.6631974746862150        0.9745912526845424    
    0.6705663355160618        0.9802762597674761    
    0.6779351963459087        0.9856879050285776    
    0.6853040571757555        0.9908248255272555    
    0.6926729180056024        0.9956859332987753    
    0.7000417788354492         1.000270411274624    
    0.7074106396652959         1.004577708911399    
    0.7147795004951428         1.008607537546653    
    0.7221483613249896         1.012359865500219    
    0.7295172221548365         1.015834912939452    
    0.7368860829846833         1.019033146526779    
    0.7442549438145302         1.021955273867708    
    0.7516238046443769         1.024602237777182    
    0.7589926654742238         1.026975210381827    
    0.7663615263040706         1.029075587075217    
    0.7737303871339175         1.030904980342789    
    0.7810992479637643         1.032465213472521    
    0.7884681087936112         1.033758314166861    
    0.7958369696234580         1.034786508070765    
    0.8032058304533048         1.035552212230038    
    0.8105746912831516         1.036058028493408    
    0.8179435521129985         1.036306736871047    
    0.8253124129428453         1.036301288861481    
    0.8326812737726922         1.036044800758010    
    0.8400501346025390         1.035540546945031    
    0.8474189954323859         1.034791953193767    
    0.8547878562622326         1.033802589966202    
    0.8621567170920795         1.032576165735162    
    0.8695255779219263         1.031116520327763    
    0.8768944387517732         1.029427618298678    
    0.8842632995816200         1.027513542338931    
    0.8916321604114669         1.025378486725290    
    0.8990010212413136         1.023026750814619    
    0.9063698820711605         1.020462732586964    
    0.9137387429010073         1.017690922240580    
    0.9211076037308542         1.014715895841559    
    0.9284764645607010         1.011542309030271    
    0.9358453253905479         1.008174890786384    
    0.9432141862203947         1.004618437253899    
    0.9505830470502414         1.000877805627267    
    0.9579519078800883        0.9969579093998832    
    0.9653207687099351        0.9928637098987437    
    0.9726896295397820        0.9886002099413815    
    0.9800584903696288        0.9841724510333418    
    0.9874273511994757        0.9795855061014627    
    0.9947962120293224        0.9748444737592876    
     1.002165072859169        0.9699544726372400    
     1.009533933689016        0.9649206357781339    
     1.016902794518863        0.9597481050987776    
     1.024271655348710        0.9544420259186250    
     1.031640516178557        0.9490075415566652    
     1.039009377008403        0.9434497879980163    
     1.046378237838250        0.9377738886320052    
     1.053747098668097        0.9319849490638280    
     1.061115959497944        0.9260880520022462    
     1.068484820327791        0.9200882522261261    
     1.075853681157638        0.9139905716330234    
     1.083222541987485        0.9077999943733664    
     1.090591402817331        0.9015214620741966    
     1.097960263647178        0.8951598691567837    
     1.105329124477025        0.8887200582528048    
     1.112697985306872        0.8822068157241227    
     1.120066846136719        0.8756248672915341    
     1.127435706966565        0.8689788737781532    
     1.134804567796412        0.8622734269733986    
     1.142173428626259        0.8555130456237618    
     1.149542289456106        0.8487021715567814    
     1.156911150285953        0.8418451659447926    
     1.164280011115800        0.8349463057151623    
     1.171648871945647        0.8280097801137946    
     1.179017732775493        0.8210396874287373    
     1.186386593605340        0.8140400318806877    
     1.193755454435187        0.8070147206871598    
     1.201124315265034        0.7999675613069223    
     1.208493176094881        0.7929022588711819    
     1.215862036924727        0.7858224138077387    
     1.223230897754574        0.7787315196640842    
     1.230599758584421        0.7716329611350721    
     1.237968619414268        0.7645300123004394    
     1.245337480244115        0.7574258350769961    
     1.252706341073962        0.7503234778898736    
     1.260075201903808        0.7432258745666707    
     1.267444062733655        0.7361358434578064    
     1.274812923563502        0.7290560867857770    
     1.282181784393349        0.7219891902254069    
     1.289550645223196        0.7149376227164944    
     1.296919506053043        0.7079037365096045    
     1.304288366882890        0.7008897674450211    
     1.311657227712736        0.6938978354641617    
     1.319026088542583        0.6869299453451202    
     1.326394949372430        0.6799879875794363    
     1.333763810202277        0.6730737397774578    
     1.341132671032124        0.6661888686231460    
     1.348501531861970        0.6593349305931374    
     1.355870392691817        0.6525133718436239    
     1.363239253521664        0.6457255321323770    
     1.370608114351511        0.6389726547676967    
     1.377976975181358        0.6322558990099499    
     1.385345836011205        0.6255763534490575    
     1.392714696841052        0.6189350457941448    
     1.400083557670898        0.6123329479100734    
     1.407452418500745        0.6057709757854427    
     1.414821279330592        0.5992499897109282    
     1.422190140160439        0.5927707969335312    
     1.429559000990286        0.5863341539475255    
     1.436927861820132        0.5799407682088974    
     1.444296722649979        0.5735912998934997    
     1.451665583479826        0.5672863636366816    
     1.459034444309673        0.5610265302189200    
     1.466403305139520        0.5548123281974590    
     1.473772165969367        0.5486442454871229    
     1.481141026799214        0.5425227308916603    
     1.488509887629060        0.5364481955869489    
     1.495878748458907        0.5304210145573786    
     1.503247609288754        0.5244415279866895    
     1.510616470118601        0.5185100426045051    
     1.517985330948448        0.5126268329898159    
     1.525354191778294        0.5067921428325890    
     1.532723052608141        0.5010061861546956    
     1.540091913437988        0.4952691484912984    
     1.547460774267835        0.4895811880338325    
     1.554829635097682        0.4839424367356729    
     1.562198495927529        0.4783530013815609    
     1.569567356757376        0.4728129646218386    
     1.576936217587222        0.4673223859725218    
     1.584305078417069        0.4618813027822001    
     1.591673939246916        0.4564897311667476    
     1.599042800076763        0.4511476669127871    
     1.606411660906610        0.4458550863508454    
     1.613780521736456        0.4406119471990934    
     1.621149382566303        0.4354181893785537    
     1.628518243396150        0.4302737358006403    
     1.635887104225997        0.4251784931278595    
     1.643255965055844        0.4201323525084898    
     1.650624825885691        0.4151351902860268    
     1.657993686715537        0.4101868686841796    
     1.665362547545384        0.4052872364681513    
     1.672731408375231        0.4004361295829438    
     1.680100269205078        0.3956333717693999    
     1.687469130034925        0.3908787751586680    
     1.694837990864772        0.3861721408457622    
     1.702206851694618        0.3815132594428751    
     1.709575712524465        0.3769019116130762    
     1.716944573354312        0.3723378685850089    
     1.724313434184159        0.3678208926491964    
     1.731682295014006        0.3633507376365281    
     1.739051155843853        0.3589271493794960    
     1.746420016673699        0.3545498661567400    
     1.753788877503546        0.3502186191214152    
     1.761157738333393        0.3459331327139287    
     1.768526599163240        0.3416931250595142    
     1.775895459993087        0.3374983083511700    
     1.783264320822934        0.3333483892183992    
     1.790633181652781        0.3292430690822435    
     1.798002042482627        0.3251820444970294    
     1.805370903312474        0.3211650074792807    
     1.812739764142321        0.3171916458242080    
     1.820108624972168        0.3132616434101810    
     1.827477485802015        0.3093746804915847    
     1.834846346631861        0.3055304339804365    
     1.842215207461708        0.3017285777171422    
     1.849584068291555        0.2979687827307454    
     1.856952929121402        0.2942507174890202    
     1.864321789951249        0.2905740481387500    
     1.871690650781096        0.2869384387365162    
     1.879059511610943        0.2833435514703146    
     1.886428372440789        0.2797890468723094    
     1.893797233270636        0.2762745840230236    
     1.901166094100483        0.2727998207472524    
     1.908534954930330        0.2693644138019797    
     1.915903815760177        0.2659680190565758    
     1.923272676590023        0.2626102916655264    
     1.930641537419870        0.2592908862339597    
     1.938010398249717        0.2560094569762126    
     1.945379259079564        0.2527656578676713    
     1.952748119909411        0.2495591427901266    
     1.960116980739258        0.2463895656708575    
     1.967485841569105        0.2432565806156669    
     1.974854702398951        0.2401598420360775    
     1.982223563228798        0.2370990047708858    
     1.989592424058645        0.2340737242022803    
     1.996961284888492        0.2310836563667039    
     2.004330145718339        0.2281284580606519    
     2.011699006548186        0.2252077869415817    
     2.019067867378032        0.2223213016241016    
     2.026436728207879        0.2194686617716147    
     2.033805589037726        0.2166495281835722    
     2.041174449867573        0.2138635628784911    
     2.048543310697420        0.2111104291728970    
     2.055912171527266        0.2083897917563263    
     2.063281032357113        0.2057013167625335    
     2.070649893186960        0.2030446718370459    
     2.078018754016807        0.2004195262011902    
     2.085387614846654        0.1978255507127177    
     2.092756475676500        0.1952624179231649    
     2.100125336506347        0.1927298021320495    
     2.107494197336194        0.1902273794380347    
     2.114863058166041        0.1877548277871637    
     2.122231918995888        0.1853118270182754    
     2.129600779825735        0.1828980589057055    
     2.136969640655582        0.1805132071993738    
     2.144338501485429        0.1781569576623593    
     2.151707362315275        0.1758289981060460    
     2.159076223145122        0.1735290184229456    
     2.166445083974969        0.1712567106172752    
     2.173813944804816        0.1690117688333779    
     2.181182805634663        0.1667938893820675    
     2.188551666464509        0.1646027707649823    
     2.195920527294356        0.1624381136970154    
     2.203289388124203        0.1602996211269050    
     2.210658248954050        0.1581869982560501    
     2.218027109783897        0.1560999525556242    
     2.225395970613744        0.1540381937820549    
     2.232764831443590        0.1520014339909278    
     2.240133692273437        0.1499893875493862    
     2.247502553103284        0.1480017711470800    
     2.254871413933131        0.1460383038057259    
     2.262240274762978        0.1440987068873328    
     2.269609135592825        0.1421827041011473    
     2.276977996422672        0.1402900215093743    
     2.284346857252519        0.1384203875317199    
     2.291715718082365        0.1365735329488075    
     2.299084578912212        0.1347491909045136    
     2.306453439742059        0.1329470969072688    
     2.313822300571906        0.1311669888303695    
     2.321191161401753        0.1294086069113414    
     2.328560022231599        0.1276716937503949    
     2.335928883061446        0.1259559943080147    
     2.343297743891293        0.1242612559017192    
     2.350666604721140        0.1225872282020279    
     2.358035465550987        0.1209336632276723    
     2.365404326380833        0.1193003153400842    
     2.372773187210680        0.1176869412371945    
     2.380142048040527        0.1160932999465743    
     2.387510908870374        0.1145191528179498    
     2.394879769700221        0.1129642635151195    
     2.402248630530067        0.1114283980073041    
     2.409617491359914        0.1099113245599550    
     2.416986352189761        0.1084128137250477    
     2.424355213019608        0.1069326383308880    
     2.431724073849455        0.1054705734714536    
     2.439092934679302        0.1040263964952958    
     2.446461795509149        0.1025998869940249    
     2.453830656338996        0.1011908267903984    
     2.461199517168842        0.9979899992603956E-01
     2.468568377998689        0.9842419264879756E-01
     2.475937238828536        0.9706619339977937E-01
     2.483306099658383        0.9572479280006382E-01
     2.490674960488230        0.9439978363712143E-01
     2.498043821318077        0.9309096085095560E-01
     2.505412682147923        0.9179812151998239E-01
     2.512781542977770        0.9052106484666442E-01
     2.520150403807617        0.8925959214291829E-01
     2.527519264637464        0.8801350681530407E-01
     2.534888125467311        0.8678261435001816E-01
     2.542256986297157        0.8556672229770054E-01
     2.549625847127004        0.8436564025806764E-01
     2.556994707956851        0.8317917986438868E-01
     2.564363568786698        0.8200715476781471E-01
     2.571732429616545        0.8084938062157207E-01
     2.579101290446391        0.7970567506503391E-01
     2.586470151276238        0.7857585770767876E-01
     2.593839012106085        0.7745975011294866E-01
     2.601207872935932        0.7635717578201474E-01
     2.608576733765779        0.7526796013746226E-01
     2.615945594595626        0.7419193050690305E-01
     2.623314455425473        0.7312891610652579E-01
     2.630683316255320        0.7207874802459020E-01
     2.638052177085166        0.7104125920487636E-01
     2.645421037915013        0.7001628443009666E-01
     2.652789898744860        0.6900366030527391E-01
     2.660158759574707        0.6800322524110021E-01
     2.667527620404554        0.6701481943727711E-01
     2.674896481234400        0.6603828486584636E-01
     2.682265342064247        0.6507346525451818E-01
     2.689634202894094        0.6412020607000238E-01
     2.697003063723941        0.6317835450134797E-01
     2.704371924553788        0.6224775944329696E-01
     2.711740785383635        0.6132827147965893E-01
     2.719109646213481        0.6041974286670959E-01
     2.726478507043328        0.5952202751661913E-01
     2.733847367873175        0.5863498098091607E-01
     2.741216228703022        0.5775846043398829E-01
     2.748585089532869        0.5689232465662886E-01
     2.755953950362716        0.5603643401962791E-01
     2.763322811192563        0.5519065046741597E-01
     2.770691672022410        0.5435483750176182E-01
     2.778060532852256        0.5352886016552855E-01
     2.785429393682103        0.5271258502649071E-01
     2.792798254511950        0.5190588016121683E-01
     2.800167115341797        0.5110861513901838E-01
     2.807535976171644        0.5032066100597011E-01
     2.814904837001490        0.4954189026900255E-01
     2.822273697831337        0.4877217688007070E-01
     2.829642558661184        0.4801139622040021E-01
     2.837011419491031        0.4725942508481339E-01
     2.844380280320878        0.4651614166613877E-01
     2.851749141150724        0.4578142553970364E-01
     2.859118001980571        0.4505515764791324E-01
     2.866486862810418        0.4433722028491804E-01
     2.873855723640265        0.4362749708137004E-01
     2.881224584470112        0.4292587298927034E-01
     2.888593445299958        0.4223223426690926E-01
     2.895962306129805        0.4154646846390037E-01
     2.903331166959652        0.4086846440631281E-01
     2.910700027789499        0.4019811218189259E-01
     2.918068888619346        0.3953530312538408E-01
     2.925437749449193        0.3887992980395238E-01
     2.932806610279040        0.3823188600270344E-01
     2.940175471108887        0.3759106671030666E-01
     2.947544331938733        0.3695736810471512E-01
     2.954913192768580        0.3633068753898648E-01
     2.962282053598427        0.3571092352720814E-01
     2.969650914428274        0.3509797573052351E-01
     2.977019775258121        0.3449174494326127E-01
     2.984388636087968        0.3389213307916949E-01
     2.991757496917814        0.3329904315775181E-01
     2.999126357747661        0.3271237929070912E-01
     3.006495218577508        0.3213204666848427E-01
     3.013864079407355        0.3155795154691132E-01
     3.021232940237202        0.3099000123397160E-01
     3.028601801067048        0.3042810407665036E-01
     3.035970661896895        0.2987216944790179E-01
     3.043339522726742        0.2932210773371720E-01
     3.050708383556589        0.2877783032029753E-01
     3.058077244386436        0.2823924958133127E-01
     3.065446105216282        0.2770627886537607E-01
     3.072814966046129        0.2717883248334513E-01
     3.080183826875976        0.2665682569609754E-01
     3.087552687705823        0.2614017470213168E-01
     3.094921548535670        0.2562879662538389E-01
     3.102290409365517        0.2512260950312811E-01
     3.109659270195364        0.2462153227398035E-01
     3.117028131025211        0.2412548476600494E-01
     3.124396991855057        0.2363438768492267E-01
     3.131765852684904        0.2314816260242121E-01
     3.139134713514751        0.2266673194456647E-01
     3.146503574344598        0.2219001898031519E-01
     3.153872435174445        0.2171794781012726E-01
     3.161241296004291        0.2125044335467845E-01
     3.168610156834138        0.2078743134367280E-01
     3.175979017663985        0.2032883830475255E-01
     3.183347878493832        0.1987459155250770E-01
     3.190716739323679        0.1942461917758205E-01
     3.198085600153526        0.1897885003587741E-01
     3.205454460983372        0.1853721373785297E-01
     3.212823321813219        0.1809964063792179E-01
     3.220192182643066        0.1766606182394102E-01
     3.227561043472913        0.1723640910679802E-01
     3.234929904302760        0.1681061501008957E-01
     3.242298765132607        0.1638861275989396E-01
     3.249667625962454        0.1597033627463625E-01
     3.257036486792301        0.1555572015504464E-01
     3.264405347622147        0.1514469967419845E-01
     3.271774208451994        0.1473721076766535E-01
     3.279143069281841        0.1433319002372960E-01
     3.286511930111688        0.1393257467370812E-01
     3.293880790941535        0.1353530258235476E-01
     3.301249651771381        0.1314131223835231E-01
     3.308618512601228        0.1275054274488991E-01
     3.315987373431075        0.1236293381032828E-01
     3.323356234260922        0.1197842573894685E-01
     3.330725095090769        0.1159695942184379E-01
     3.338093955920615        0.1121847634044320E-01
     3.345462816750462        0.1084291888543990E-01
     3.352831677580309        0.1047023274780710E-01
     3.360200538410156        0.1010037436359861E-01
     3.367569399240003        0.9733323742347783E-02
     3.374938260069849        0.9369099108324707E-02
     3.382307120899696        0.9007769054052898E-02
     3.389675981729543        0.8649459718838563E-02
     3.397044842559390        0.8294356559918614E-02
     3.404413703389237        0.7942701537589596E-02
     3.411782564219084        0.7594786997677021E-02
     3.419151425048931        0.7250947519132538E-02
     3.426520285878778        0.6911550771775617E-02
     3.433889146708624        0.6576988158036656E-02
     3.441258007538471        0.6247665766488482E-02
     3.448626868368318        0.5923995968583742E-02
     3.455995729198165        0.5606389844691998E-02
     3.463364590028012        0.5295250523587800E-02
     3.470733450857859        0.4990967451224512E-02
     3.478102311687705        0.4693911560987534E-02
     3.485471172517552        0.4404431291392154E-02
     3.492840033347399        0.4122849382904702E-02
     3.500208894177246        0.3849460379198078E-02
     3.507577755007093        0.3584528756911624E-02
     3.514946615836939        0.3328287609876660E-02
     3.522315476666786        0.3080937817476167E-02
     3.529684337496633        0.2842647631400627E-02
     3.537053198326480        0.2613552619932686E-02
     3.544422059156327        0.2393755913600702E-02
     3.551790919986173        0.2183328700258033E-02
     3.559159780816020        0.1982310921078308E-02
     3.566528641645867        0.1790712121280111E-02
     3.573897502475714        0.1608512410157124E-02
     3.581266363305561        0.1435663483483716E-02
     3.588635224135408        0.1272089656388811E-02
     3.596004084965255        0.1117688844194715E-02
     3.603372945795102        0.9723334085121540E-03
     3.610741806624948        0.8358707482963904E-03
     3.618110667454795        0.7081234446873020E-03
     3.625479528284642        0.5888886295826319E-03
     3.632848389114489        0.4779359594252897E-03
     3.640217249944336        0.3750029266996044E-03
     3.647586110774182        0.2797846162703110E-03
     3.654954971604029        0.1919102922518971E-03
     3.662323832433876        0.1108827556452351E-03
     3.669692693263723        0.3586109198679900E-04
     3.677061554093570         0.000000000000000    
  0  4  1  0  1.000000   #orbital l, n, z, is_polarized, population
 500    0.2122193110175504E-01     10.58974361977577     # npts, delta, cutoff
     0.000000000000000        0.5495052932156433E-01
    0.2122193110175504E-01    0.5540482577585880E-01
    0.4244386220351008E-01    0.5676581294614512E-01
    0.6366579330526512E-01    0.5901960892653919E-01
    0.8488772440702017E-01    0.6214464391237592E-01
    0.1061096555087752        0.6611111538645238E-01
    0.1273315866105302        0.7088135541242477E-01
    0.1485535177122853        0.7641027376987486E-01
    0.1697754488140403        0.8264586707555084E-01
    0.1909973799157954        0.8952978771156075E-01