<preamble>

<basis_specs>
===============================================================================
Mg                   Z=  12    Mass=  24.305        Charge= 0.17977+309
Lmxo=1 Lmxkb= 1    BasisType=split      Semic=T
L=0  Nsemic=1  Cnfigmx=3
          i=1  nzeta=1  polorb=0  (2s)  (semicore shell)
            splnorm:   0.15000    
               vcte:    40.000    
               rinn:    2.2198    
               qcoe:    0.0000    
               qyuk:    0.0000    
               qwid:   0.10000E-01
                rcs:    2.4665    
            lambdas:    1.0000    
          i=2  nzeta=2  polorb=0  (3s)  (to be polarized non-perturbatively)
            splnorm:   0.15000    
               vcte:    40.000    
               rinn:    6.8288    
               qcoe:    0.0000    
               qyuk:    0.0000    
               qwid:   0.10000E-01
                rcs:    7.5800      5.4412    
            lambdas:    1.0000      1.0000    
L=1  Nsemic=1  Cnfigmx=3
          i=1  nzeta=1  polorb=0  (2p)  (semicore shell)
            splnorm:   0.15000    
               vcte:    40.000    
               rinn:    2.4815    
               qcoe:    0.0000    
               qyuk:    0.0000    
               qwid:   0.10000E-01
                rcs:    2.7544    
            lambdas:    1.0000    
          i=2  nzeta=1  polorb=0  (3p)  (non-perturbative polarization shell)
            splnorm:   0.15000    
               vcte:    40.000    
               rinn:    6.8288    
               qcoe:    0.0000    
               qyuk:    0.0000    
               qwid:   0.10000E-01
                rcs:    7.5800    
            lambdas:    1.0000    
-------------------------------------------------------------------------------
L=0  Nkbl=2  erefs: 0.17977+309 0.17977+309
L=1  Nkbl=2  erefs: 0.17977+309 0.17977+309
===============================================================================
</basis_specs>

<pseudopotential_header>
 Mg pw nrl nc  
 ONCVPSP-3.2018-03-09Hamann's oncvpsp                        
 2s 2.00  r= 1.16/2p 6.00  r= 1.56/                                     2s:2p:3s:
</pseudopotential_header>
</preamble>
Mg                            # Symbol
Mg                            # Label
   12                         # Atomic number
     10.0000000000                             # Valence charge
     24.3050000000        # Mass 
     144.562838966        # Self energy 
   1   5                      # Lmax for basis, no. of nl orbitals 
   1   4                      # Lmax for projectors, no. of nl KB projectors
# PAOs:__________________________
  0  2  1  0  2.000000   #orbital l, n, z, is_polarized, population
 500    0.4942804087248756E-02     2.466459239537129     # npts, delta, cutoff
     0.000000000000000         3.481705312788537    
    0.4942804087248756E-02     3.481503429839822    
    0.9885608174497513E-02     3.481071417113804    
    0.1482841226174627E-01     3.480351608802880    
    0.1977121634899503E-01     3.479344177391773    
    0.2471402043624378E-01     3.478049399398831    
    0.2965682452349254E-01     3.476467635626453    
    0.3459962861074129E-01     3.474599328132558    
    0.3954243269799005E-01     3.472444999247749    
    0.4448523678523881E-01     3.470005251008069    
    0.4942804087248756E-01     3.467280764677926    
    0.5437084495973632E-01     3.464272300274928    
    0.5931364904698508E-01     3.460980696067899    
    0.6425645313423384E-01     3.457406868037565    
    0.6919925722148258E-01     3.453551809296033    
    0.7414206130873134E-01     3.449416589463954    
    0.7908486539598010E-01     3.445002354005312    
    0.8402766948322886E-01     3.440310323520538    
    0.8897047357047762E-01     3.435341792998943    
    0.9391327765772636E-01     3.430098131031598    
    0.9885608174497512E-01     3.424580778986049    
    0.1037988858322239         3.418791250144182    
    0.1087416899194726         3.412731128804842    
    0.1136844940067214         3.406402069352648    
    0.1186272980939702         3.399805795294619    
    0.1235701021812189         3.392944098266227    
    0.1285129062684677         3.385818837008533    
    0.1334557103557164         3.378431936318038    
    0.1383985144429652         3.370785385970924    
    0.1433413185302139         3.362881239623372    
    0.1482841226174627         3.354721613689624    
    0.1532269267047114         3.346308686199441    
    0.1581697307919602         3.337644695636616    
    0.1631125348792090         3.328731939760159    
    0.1680553389664577         3.319572774409780    
    0.1729981430537065         3.310169612297219    
    0.1779409471409552         3.300524921784937    
    0.1828837512282040         3.290641225653733    
    0.1878265553154527         3.280521099860636    
    0.1927693594027015         3.270167172288551    
    0.1977121634899502         3.259582121488957    
    0.2026549675771990         3.248768675418943    
    0.2075977716644478         3.237729610173791    
    0.2125405757516965         3.226467748716333    
    0.2174833798389453         3.214985959604046    
    0.2224261839261940         3.203287155715015    
    0.2273689880134428         3.191374292973654    
    0.2323117921006916         3.179250369077072    
    0.2372545961879403         3.166918422222858    
    0.2421974002751890         3.154381529839055    
    0.2471402043624378         3.141642807316922    
    0.2520830084496866         3.128705406747073    
    0.2570258125369353         3.115572515659478    
    0.2619686166241841         3.102247355767784    
    0.2669114207114328         3.088733181718218    
    0.2718542247986816         3.075033279843440    
    0.2767970288859303         3.061150966921484    
    0.2817398329731791         3.047089588939943    
    0.2866826370604278         3.032852519865489    
    0.2916254411476766         3.018443160418680    
    0.2965682452349254         3.003864936854073    
    0.3015110493221742         2.989121299745475    
    0.3064538534094229         2.974215722776201    
    0.3113966574966717         2.959151701534136    
    0.3163394615839204         2.943932752311347    
    0.3212822656711691         2.928562410907922    
    0.3262250697584179         2.913044231439779    
    0.3311678738456666         2.897381785150024    
    0.3361106779329154         2.881578659223532    
    0.3410534820201642         2.865638455604304    
    0.3459962861074130         2.849564789815247    
    0.3509390901946617         2.833361289779889    
    0.3558818942819105         2.817031594645668    
    0.3608246983691592         2.800579353608324    
    0.3657675024564080         2.784008224737003    
    0.3707103065436567         2.767321873799643    
    0.3756531106309055         2.750523973088284    
    0.3805959147181542         2.733618200243905    
    0.3855387188054030         2.716608237080458    
    0.3904815228926518         2.699497768407795    
    0.3954243269799005         2.682290480872860    
    0.4003671310671493         2.664990061871673    
    0.4053099351543980         2.647600197969437    
    0.4102527392416468         2.630124574157358    
    0.4151955433288955         2.612566872512696    
    0.4201383474161443         2.594930771010234    
    0.4250811515033930         2.577219942332167    
    0.4300239555906418         2.559438052675942    
    0.4349667596778906         2.541588760560248    
    0.4399095637651393         2.523675715629317    
    0.4448523678523881         2.505702557455817    
    0.4497951719396368         2.487672914342683    
    0.4547379760268856         2.469590402124238    
    0.4596807801141343         2.451458622967122    
    0.4646235842013831         2.433281164171534    
    0.4695663882886318         2.415061596973380    
    0.4745091923758806         2.396803475348016    
    0.4794519964631294         2.378510334816307    
    0.4843948005503781         2.360185691253788    
    0.4893376046376269         2.341833039703790    
    0.4942804087248756         2.323455853195464    
    0.4992232128121244         2.305057581567644    
    0.5041660168993731         2.286641650299609    
    0.5091088209866219         2.268211459349804    
    0.5140516250738707         2.249770382003653    
    0.5189944291611194         2.231321763731637    
    0.5239372332483682         2.212868921058841    
    0.5288800373356169         2.194415140447224    
    0.5338228414228656         2.175963677191885    
    0.5387656455101144         2.157517754332624    
    0.5437084495973632         2.139080561582129    
    0.5486512536846120         2.120655254272137    
    0.5535940577718607         2.102244952318891    
    0.5585368618591094         2.083852739209286    
    0.5634796659463582         2.065481661009045    
    0.5684224700336070         2.047134725394267    
    0.5733652741208557         2.028814900707713    
    0.5783080782081045         2.010525115041118    
    0.5832508822953533         1.992268255344880    
    0.5881936863826019         1.974047166566357    
    0.5931364904698507         1.955864650818027    
    0.5980792945570995         1.937723466576743    
    0.6030220986443483         1.919626327915195    
    0.6079649027315970         1.901575903766725    
    0.6129077068188458         1.883574817224552    
    0.6178505109060946         1.865625644876387    
    0.6227933149933433         1.847730916175394    
    0.6277361190805920         1.829893112848368    
    0.6326789231678408         1.812114668341918    
    0.6376217272550896         1.794397967307385    
    0.6425645313423383         1.776745345125166    
    0.6475073354295870         1.759159087468959    
    0.6524501395168358         1.741641429910469    
    0.6573929436040846         1.724194557564935    
    0.6623357476913333         1.706820604777801    
    0.6672785517785821         1.689521654852740    
    0.6722213558658309         1.672299739821166    
    0.6771641599530797         1.655156840253273    
    0.6821069640403283         1.638094885110517    
    0.6870497681275771         1.621115751639418    
    0.6919925722148259         1.604221265306426    
    0.6969353763020746         1.587413199773497    
    0.7018781803893234         1.570693276913971    
    0.7068209844765722         1.554063166868230    
    0.7117637885638209         1.537524488138493    
    0.7167065926510696         1.521078807722110    
    0.7216493967383184         1.504727641282510    
    0.7265922008255672         1.488472453356991    
    0.7315350049128160         1.472314657600374    
    0.7364778090000647         1.456255617063536    
    0.7414206130873134         1.440296644505694    
    0.7463634171745622         1.424439002739322    
    0.7513062212618109         1.408683905006445    
    0.7562490253490597         1.393032515385067    
    0.7611918294363085         1.377485949224349    
    0.7661346335235573         1.362045273607201    
    0.7710774376108059         1.346711507838822    
    0.7760202416980547         1.331485623959738    
    0.7809630457853035         1.316368547281824    
    0.7859058498725523         1.301361156945776    
    0.7908486539598010         1.286464286498493    
    0.7957914580470498         1.271678724488754    
    0.8007342621342985         1.257005215079660    
    0.8056770662215472         1.242444458676196    
    0.8106198703087960         1.227997112566342    
    0.8155626743960448         1.213663791574145    
    0.8205054784832936         1.199445068723153    
    0.8254482825705423         1.185341475908671    
    0.8303910866577910         1.171353504577276    
    0.8353338907450398         1.157481606412063    
    0.8402766948322886         1.143726194022173    
    0.8452194989195373         1.130087641635100    
    0.8501623030067861         1.116566285790408    
    0.8551051070940349         1.103162426033451    
    0.8600479111812835         1.089876325607819    
    0.8649907152685323         1.076708212145202    
    0.8699335193557811         1.063658278351493    
    0.8748763234430299         1.050726682687960    
    0.8798191275302786         1.037913550046413    
    0.8847619316175274         1.025218972417322    
    0.8897047357047762         1.012643009549975    
    0.8946475397920249         1.000185689603730    
    0.8995903438792736        0.9878470097895953    
    0.9045331479665224        0.9756269370013971    
    0.9094759520537712        0.9635254084358365    
    0.9144187561410199        0.9515423322008794    
    0.9193615602282686        0.9396775879119449    
    0.9243043643155174        0.9279310272754701    
    0.9292471684027662        0.9163024746594697    
    0.9341899724900149        0.9047917276508223    
    0.9391327765772637        0.8933985575990470    
    0.9440755806645125        0.8821227101464522    
    0.9490183847517613        0.8709639057445677    
    0.9539611888390099        0.8599218401568719    
    0.9589039929262587        0.8489961849478643    
    0.9638467970135075        0.8381865879586412    
    0.9687896011007562        0.8274926737691414    
    0.9737324051880050        0.8169140441473234    
    0.9786752092752538        0.8064502784855997    
    0.9836180133625025        0.7961009342248606    
    0.9885608174497512        0.7858655472665246    
    0.9935036215370000        0.7757436323730579    
    0.9984464256242488        0.7657346835574697    
     1.003389229711497        0.7558381744623182    
     1.008332033798746        0.7460535587287977    
     1.013274837885995        0.7363802703565069    
     1.018217641973244        0.7268177240545287    
     1.023160446060493        0.7173653155844683    
     1.028103250147741        0.7080224220961083    
     1.033046054234990        0.6987884024563684    
     1.037988858322239        0.6896625975722472    
     1.042931662409488        0.6806443307084439    
     1.047874466496736        0.6717329078003408    
     1.052817270583985        0.6629276177630437    
     1.057760074671234        0.6542277327971522    
     1.062702878758483        0.6456325086919285    
     1.067645682845731        0.6371411851265175    
     1.072588486932980        0.6287529859698453    
     1.077531291020229        0.6204671195798090    
     1.082474095107478        0.6122827791023570    
     1.087416899194726        0.6041991427709803    
     1.092359703281975        0.5962153742071763    
     1.097302507369224        0.5883306227223536    
     1.102245311456473        0.5805440236216433    
     1.107188115543721        0.5728546985100217    
     1.112130919630970        0.5652617555177611    
     1.117073723718219        0.5577642889083074    
     1.122016527805468        0.5503613803955705    
     1.126959331892716        0.5430520993265801    
     1.131902135979965        0.5358355029592631    
     1.136844940067214        0.5287106370078781    
     1.141787744154463        0.5216765362082806    
     1.146730548241711        0.5147322238170484    
     1.151673352328960        0.5078767110781918    
     1.156616156416209        0.5011089977532857    
     1.161558960503458        0.4944280752332400    
     1.166501764590707        0.4878329305772671    
     1.171444568677955        0.4813225509357099    
     1.176387372765204        0.4748959280004303    
     1.181330176852453        0.4685520619290957    
     1.186272980939701        0.4622899632939484    
     1.191215785026950        0.4561086525911684    
     1.196158589114199        0.4500071591078047    
     1.201101393201448        0.4439845204476680    
     1.206044197288697        0.4380397828582679    
     1.210987001375945        0.4321720014867702    
     1.215929805463194        0.4263802404340788    
     1.220872609550443        0.4206635726969598    
     1.225815413637692        0.4150210801689180    
     1.230758217724940        0.4094518536420762    
     1.235701021812189        0.4039549928060743    
     1.240643825899438        0.3985296062417173    
     1.245586629986687        0.3931748114107551    
     1.250529434073935        0.3878897346419767    
     1.255472238161184        0.3826735111138203    
     1.260415042248433        0.3775252848336778    
     1.265357846335682        0.3724442086140569    
     1.270300650422930        0.3674294440457815    
     1.275243454510179        0.3624801614683709    
     1.280186258597428        0.3575955399377724    
     1.285129062684677        0.3527747671915645    
     1.290071866771925        0.3480170396118007    
     1.295014670859174        0.3433215621856004    
     1.299957474946423        0.3386875484636362    
     1.304900279033672        0.3341142205166259    
     1.309843083120920        0.3296008088899512    
     1.314785887208169        0.3251465525565246    
     1.319728691295418        0.3207506988679901    
     1.324671495382667        0.3164125035043906    
     1.329614299469915        0.3121312304223697    
     1.334557103557164        0.3079061518020296    
     1.339499907644413        0.3037365479925176    
     1.344442711731662        0.2996217074564309    
     1.349385515818911        0.2955609267131347    
     1.354328319906159        0.2915535102810529    
     1.359271123993408        0.2875987706190229    
     1.364213928080657        0.2836960280667818    
     1.369156732167905        0.2798446107846508    
     1.374099536255154        0.2760438546924850    
     1.379042340342403        0.2722931034079598    
     1.383985144429652        0.2685917081842373    
     1.388927948516901        0.2649390278470887    
     1.393870752604149        0.2613344287315170    
     1.398813556691398        0.2577772846179327    
     1.403756360778647        0.2542669766679398    
     1.408699164865896        0.2508028933597746    
     1.413641968953144        0.2473844304234410    
     1.418584773040393        0.2440109907755908    
     1.423527577127642        0.2406819844541908    
     1.428470381214890        0.2373968285530118    
     1.433413185302139        0.2341549471559775    
     1.438355989389388        0.2309557712714190    
     1.443298793476637        0.2277987387662539    
     1.448241597563886        0.2246832943001345    
     1.453184401651134        0.2216088892595899    
     1.458127205738383        0.2185749816921968    
     1.463070009825632        0.2155810362407999    
     1.468012813912881        0.2126265240778141    
     1.472955618000129        0.2097109228396329    
     1.477898422087378        0.2068337165611686    
     1.482841226174627        0.2039943956105365    
     1.487784030261876        0.2011924566239220    
     1.492726834349124        0.1984274024406389    
     1.497669638436373        0.1956987420383995    
     1.502612442523622        0.1930059904688213    
     1.507555246610871        0.1903486687931755    
     1.512498050698119        0.1877263040184118    
     1.517440854785368        0.1851384290334565    
     1.522383658872617        0.1825845825458094    
     1.527326462959866        0.1800643090184506    
     1.532269267047115        0.1775771586070691    
     1.537212071134363        0.1751226870976300    
     1.542154875221612        0.1727004558442815    
     1.547097679308861        0.1703100317076255    
     1.552040483396109        0.1679509869933508    
     1.556983287483358        0.1656228993912468    
     1.561926091570607        0.1633253519146023    
     1.566868895657856        0.1610579328399954    
     1.571811699745105        0.1588202356474860    
     1.576754503832353        0.1566118589612178    
     1.581697307919602        0.1544324064904377    
     1.586640112006851        0.1522814869709337    
     1.591582916094100        0.1501587141068992    
     1.596525720181348        0.1480637065132284    
     1.601468524268597        0.1459960876582511    
     1.606411328355846        0.1439554858069073    
     1.611354132443094        0.1419415339643739    
     1.616296936530343        0.1399538698201314    
     1.621239740617592        0.1379921356924889    
     1.626182544704841        0.1360559784735610    
     1.631125348792090        0.1341450495747023    
     1.636068152879338        0.1322590048724049    
     1.641010956966587        0.1303975046546564    
     1.645953761053836        0.1285602135677604    
     1.650896565141085        0.1267468005636244    
     1.655839369228333        0.1249569388475130    
     1.660782173315582        0.1231903058262687    
     1.665724977402831        0.1214465830570006    
     1.670667781490080        0.1197254561962407    
     1.675610585577328        0.1180266149495712    
     1.680553389664577        0.1163497530217179    
     1.685496193751826        0.1146945680671136    
     1.690438997839075        0.1130607616409300    
     1.695381801926323        0.1114480391505773    
     1.700324606013572        0.1098561098076702    
     1.705267410100821        0.1082846865804603    
     1.710210214188070        0.1067334861467352    
     1.715153018275319        0.1052022288471811    
     1.720095822362567        0.1036906386392063    
     1.725038626449816        0.1021984430512292    
     1.729981430537065        0.1007253731374265    
     1.734924234624313        0.9927116343293628E-01
     1.739867038711562        0.9783555190952127E-01
     1.744809842798811        0.9641827993168582E-01
     1.749752646886060        0.9501909221324568E-01
     1.754695450973308        0.9363773677434871E-01
     1.759638255060557        0.9227396489894404E-01
     1.764581059147806        0.9092753109269841E-01
     1.769523863235055        0.8959819304135661E-01
     1.774466667322304        0.8828571156954286E-01
     1.779409471409552        0.8698985060000294E-01
     1.784352275496801        0.8571037711328254E-01
     1.789295079584050        0.8444706110783948E-01
     1.794237883671298        0.8319967556058838E-01
     1.799180687758547        0.8196799638787412E-01
     1.804123491845796        0.8075180240687130E-01
     1.809066295933045        0.7955087529740668E-01
     1.814009100020294        0.7836499956420379E-01
     1.818951904107542        0.7719396249954261E-01
     1.823894708194791        0.7603755414633614E-01
     1.828837512282040        0.7489556726161849E-01
     1.833780316369289        0.7376779728043967E-01
     1.838723120456537        0.7265404228016795E-01
     1.843665924543786        0.7155410294519510E-01
     1.848608728631035        0.7046778253203848E-01
     1.853551532718284        0.6939488683484175E-01
     1.858494336805532        0.6833522415126843E-01
     1.863437140892781        0.6728860524878338E-01
     1.868379944980030        0.6625484333132285E-01
     1.873322749067279        0.6523375400634827E-01
     1.878265553154527        0.6422515525227727E-01
     1.883208357241776        0.6322886738629453E-01
     1.888151161329025        0.6224471303253536E-01
     1.893093965416274        0.6127251709063779E-01
     1.898036769503523        0.6031210670466467E-01
     1.902979573590771        0.5936331123238540E-01
     1.907922377678020        0.5842596221492104E-01
     1.912865181765269        0.5749989334674601E-01
     1.917807985852517        0.5658494044604030E-01
     1.922750789939766        0.5568094142539544E-01
     1.927693594027015        0.5478773626286511E-01
     1.932636398114264        0.5390516697335923E-01
     1.937579202201512        0.5303307758037889E-01
     1.942522006288761        0.5217131408808701E-01
     1.947464810376010        0.5131972445371239E-01
     1.952407614463259        0.5047815856028443E-01
     1.957350418550508        0.4964646818969274E-01
     1.962293222637756        0.4882450699607124E-01
     1.967236026725005        0.4801213047950178E-01
     1.972178830812254        0.4720919596003287E-01
     1.977121634899502        0.4641556255201362E-01
     1.982064438986751        0.4563109113873538E-01
     1.987007243074000        0.4485564434738023E-01
     1.991950047161249        0.4408908652427437E-01
     1.996892851248498        0.4333128371043735E-01
     2.001835655335746        0.4258210361743165E-01
     2.006778459422995        0.4184141560350323E-01
     2.011721263510244        0.4110909065001193E-01
     2.016664067597493        0.4038500133814960E-01
     2.021606871684742        0.3966902182594002E-01
     2.026549675771990        0.3896102782552009E-01
     2.031492479859239        0.3826089658069740E-01
     2.036435283946488        0.3756850684478089E-01
     2.041378088033736        0.3688373885868344E-01
     2.046320892120985        0.3620647432928952E-01
     2.051263696208234        0.3553659640808877E-01
     2.056206500295483        0.3487398967007023E-01
     2.061149304382731        0.3421854009287303E-01
     2.066092108469980        0.3357013503619342E-01
     2.071034912557229        0.3292866322144244E-01
     2.075977716644477        0.3229401471165256E-01
     2.080920520731727        0.3166608089162952E-01
     2.085863324818975        0.3104475444834651E-01
     2.090806128906224        0.3042992935157852E-01
     2.095748932993473        0.2982150083477200E-01
     2.100691737080721        0.2921936537614863E-01
     2.105634541167970        0.2862342068004022E-01
     2.110577345255219        0.2803356565844957E-01
     2.115520149342468        0.2744970041283759E-01
     2.120462953429716        0.2687172621613114E-01
     2.125405757516965        0.2629954549495034E-01
     2.130348561604214        0.2573306181205183E-01
     2.135291365691462        0.2517217984898482E-01
     2.140234169778712        0.2461680538895874E-01
     2.145176973865960        0.2406684529991699E-01
     2.150119777953209        0.2352220751781699E-01
     2.155062582040458        0.2298280103011165E-01
     2.160005386127707        0.2244853585943039E-01
     2.164948190214955        0.2191932304745716E-01
     2.169890994302204        0.2139507463900239E-01
     2.174833798389453        0.2087570366626620E-01
     2.179776602476701        0.2036112413329140E-01
     2.184719406563950        0.1985125100060148E-01
     2.189662210651199        0.1934600017002338E-01
     2.194605014738448        0.1884528846969057E-01
     2.199547818825696        0.1834903363922503E-01
     2.204490622912946        0.1785715431509590E-01
     2.209433427000194        0.1736957001615060E-01
     2.214376231087443        0.1688620112931814E-01
     2.219319035174692        0.1640696889548092E-01
     2.224261839261940        0.1593179539551259E-01
     2.229204643349189        0.1546060353647932E-01
     2.234147447436438        0.1499331703806078E-01
     2.239090251523687        0.1452986043000342E-01
     2.244033055610935        0.1407015932393835E-01
     2.248975859698184        0.1361414249175874E-01
     2.253918663785433        0.1316174837010128E-01
     2.258861467872681        0.1271293632942020E-01
     2.263804271959931        0.1226769964389008E-01
     2.268747076047179        0.1182607642531912E-01
     2.273689880134428        0.1138815632869681E-01
     2.278632684221677        0.1095408261113479E-01
     2.283575488308925        0.1052405021811158E-01
     2.288518292396174        0.1009830098080948E-01
     2.293461096483423        0.9677117003800870E-02
     2.298403900570672        0.9260813136284254E-02
     2.303346704657920        0.8849729190155788E-02
     2.308289508745169        0.8444222358503955E-02
     2.313232312832418        0.8044660120467478E-02
     2.318175116919666        0.7651413794261840E-02
     2.323117921006915        0.7264852813181681E-02
     2.328060725094164        0.6885339741170780E-02
     2.333003529181413        0.6513226007478231E-02
     2.337946333268662        0.6148848317724672E-02
     2.342889137355911        0.5792525686672939E-02
     2.347831941443159        0.5444557032690438E-02
     2.352774745530408        0.5105219272867567E-02
     2.357717549617657        0.4774765859337280E-02
     2.362660353704905        0.4453425700356363E-02
     2.367603157792154        0.4141402413379177E-02
     2.372545961879403        0.3838873861127975E-02
     2.377488765966652        0.3545991925150147E-02
     2.382431570053900        0.3262882474224234E-02
     2.387374374141149        0.2989645486926681E-02
     2.392317178228398        0.2726355288299673E-02
     2.397259982315647        0.2473060859319007E-02
     2.402202786402896        0.2229786173828056E-02
     2.407145590490144        0.1996530509255192E-02
     2.412088394577393        0.1773268662001973E-02
     2.417031198664642        0.1559950970823385E-02
     2.421974002751891        0.1356503001962391E-02
     2.426916806839139        0.1162824658240404E-02
     2.431859610926388        0.9787882972504820E-03
     2.436802415013637        0.8042350795607070E-03
     2.441745219100885        0.6389679547511654E-03
     2.446688023188134        0.4827376711054851E-03
     2.451630827275383        0.3352123612218817E-03
     2.456573631362632        0.1959002413425273E-03
     2.461516435449881        0.6388029021662995E-04
     2.466459239537129         0.000000000000000    
  0  3  1  0  2.000000   #orbital l, n, z, is_polarized, population
 500    0.1519035372661155E-01     7.579986509579162     # npts, delta, cutoff
     0.000000000000000         1.034795901243563    
    0.1519035372661155E-01     1.034157401438537    
    0.3038070745322309E-01     1.032295422689733    
    0.4557106117983464E-01     1.029198268826490    
    0.6076141490644619E-01     1.024875103536325    
    0.7595176863305773E-01     1.019338683636388    
    0.9114212235966929E-01     1.012605282810245    
    0.1063324760862808         1.004694597635276    
    0.1215228298128924        0.9956296358257142    
    0.1367131835395039        0.9854365880778286    
    0.1519035372661155        0.9741446851780471    