<preamble>

<basis_specs>
===============================================================================
Mn                   Z=  25    Mass=  54.938        Charge= 0.17977+309
Lmxo=2 Lmxkb= 2    BasisType=split      Semic=T
L=0  Nsemic=1  Cnfigmx=4
          i=1  nzeta=1  polorb=0  (3s)  (semicore shell)
            splnorm:   0.15000    
               vcte:    40.000    
               rinn:    2.3411    
               qcoe:    0.0000    
               qyuk:    0.0000    
               qwid:   0.10000E-01
                rcs:    2.5986    
            lambdas:    1.0000    
          i=2  nzeta=2  polorb=0  (4s)  (to be polarized non-perturbatively)
            splnorm:   0.15000    
               vcte:    40.000    
               rinn:    6.3411    
               qcoe:    0.0000    
               qyuk:    0.0000    
               qwid:   0.10000E-01
                rcs:    7.0386      5.0120    
            lambdas:    1.0000      1.0000    
L=1  Nsemic=1  Cnfigmx=4
          i=1  nzeta=1  polorb=0  (3p)  (semicore shell)
            splnorm:   0.15000    
               vcte:    40.000    
               rinn:    2.6092    
               qcoe:    0.0000    
               qyuk:    0.0000    
               qwid:   0.10000E-01
                rcs:    2.8962    
            lambdas:    1.0000    
          i=2  nzeta=1  polorb=0  (4p)  (non-perturbative polarization shell)
            splnorm:   0.15000    
               vcte:    40.000    
               rinn:    6.3411    
               qcoe:    0.0000    
               qyuk:    0.0000    
               qwid:   0.10000E-01
                rcs:    7.0386    
            lambdas:    1.0000    
L=2  Nsemic=0  Cnfigmx=3
          i=1  nzeta=2  polorb=0  (3d)
            splnorm:   0.15000    
               vcte:    40.000    
               rinn:    4.1800    
               qcoe:    0.0000    
               qyuk:    0.0000    
               qwid:   0.10000E-01
                rcs:    4.6398      2.8358    
            lambdas:    1.0000      1.0000    
-------------------------------------------------------------------------------
L=0  Nkbl=2  erefs: 0.17977+309 0.17977+309
L=1  Nkbl=2  erefs: 0.17977+309 0.17977+309
L=2  Nkbl=1  erefs: 0.17977+309
===============================================================================
</basis_specs>

<pseudopotential_header>
 Mn pw nrl pcec
 ONCVPSP-3.2020-12-01Hamann's oncvpsp                        
 3s 2.00  r= 1.41/3p 6.00  r= 1.21/3d 5.00  r= 1.61/                    3s:3p:3d:4s:
</pseudopotential_header>
</preamble>
Mn                            # Symbol
Mn                            # Label
   25                         # Atomic number
     15.0000000000                             # Valence charge
     54.9380000000        # Mass 
     293.509020517        # Self energy 
   2   7                      # Lmax for basis, no. of nl orbitals 
   2   6                      # Lmax for projectors, no. of nl KB projectors
# PAOs:__________________________
  0  3  1  0  2.000000   #orbital l, n, z, is_polarized, population
 500    0.5207699579662335E-02     2.598642090251505     # npts, delta, cutoff
     0.000000000000000         2.140511296520913    
    0.5207699579662335E-02     2.140442174287004    
    0.1041539915932467E-01     2.140394899662577    
    0.1562309873898701E-01     2.140316109799449    
    0.2083079831864934E-01     2.140205678083127    
    0.2603849789831168E-01     2.140063458239154    
    0.3124619747797401E-01     2.139889267361238    
    0.3645389705763635E-01     2.139682883664468    
    0.4166159663729868E-01     2.139444046117683    
    0.4686929621696102E-01     2.139172454527392    
    0.5207699579662335E-01     2.138867769787522    
    0.5728469537628569E-01     2.138529614216764    
    0.6249239495594802E-01     2.138157571957185    
    0.6770009453561035E-01     2.137751189423680    
    0.7290779411527269E-01     2.137309975799507    
    0.7811549369493503E-01     2.136833403575414    
    0.8332319327459736E-01     2.136320909130722    
    0.8853089285425969E-01     2.135771893355296    
    0.9373859243392203E-01     2.135185722311426    
    0.9894629201358437E-01     2.134561727934743    
    0.1041539915932467         2.133899208773366    
    0.1093616911729090         2.133197430764412    
    0.1145693907525714         2.132455628047042    
    0.1197770903322337         2.131673003811144    
    0.1249847899118960         2.130848731180776    
    0.1301924894915584         2.129981954131407    
    0.1354001890712207         2.129071788440002    
    0.1406078886508831         2.128117322666988    
    0.1458155882305454         2.127117619168995    
    0.1510232878102077         2.126071715141398    
    0.1562309873898701         2.124978623689518    
    0.1614386869695324         2.123837334927405    
    0.1666463865491947         2.122646817103020    
    0.1718540861288571         2.121406017748682    
    0.1770617857085194         2.120113864855565    
    0.1822694852881817         2.118769268071040    
    0.1874771848678441         2.117371119917602    
    0.1926848844475064         2.115918297032162    
    0.1978925840271687         2.114409661424365    
    0.2031002836068311         2.112844061752684    
    0.2083079831864934         2.111220334616941    
    0.2135156827661557         2.109537305865956    
    0.2187233823458181         2.107793791918939    
    0.2239310819254804         2.105988601099293    
    0.2291387815051427         2.104120534979462    
    0.2343464810848051         2.102188389735426    
    0.2395541806644674         2.100190957509464    
    0.2447618802441298         2.098127027779798    
    0.2499695798237921         2.095995388735717    
    0.2551772794034544         2.093794828656773    
    0.2603849789831167         2.091524137294647    
    0.2655926785627791         2.089182107256299    
    0.2708003781424414         2.086767535386960    
    0.2760080777221038         2.084279224151613    
    0.2812157773017661         2.081715983013531    
    0.2864234768814284         2.079076629808496    
    0.2916311764610908         2.076359992113332    
    0.2968388760407531         2.073564908607327    
    0.3020465756204154         2.070690230425246    
    0.3072542752000778         2.067734822500543    
    0.3124619747797401         2.064697564897426    
    0.3176696743594025         2.061577354130494    
    0.3228773739390648         2.058373104470581    
    0.3280850735187271         2.055083749235556    
    0.3332927730983894         2.051708242064809    
    0.3385004726780518         2.048245558176124    
    0.3437081722577141         2.044694695603782    
    0.3489158718373764         2.041054676416610    
    0.3541235714170388         2.037324547914845    
    0.3593312709967011         2.033503383804642    
    0.3645389705763635         2.029590285349068    
    0.3697466701560258         2.025584382494525    
    0.3749543697356881         2.021484834971478    
    0.3801620693153505         2.017290833368469    
    0.3853697688950128         2.013001600178409    
    0.3905774684746751         2.008616390816129    
    0.3957851680543375         2.004134494606288    
    0.4009928676339998         1.999555235740678    
    0.4062005672136622         1.994877974204074    
    0.4114082667933245         1.990102106667774    
    0.4166159663729868         1.985227067350010    
    0.4218236659526491         1.980252328842469    
    0.4270313655323115         1.975177402902198    
    0.4322390651119738         1.970001841208175    
    0.4374467646916361         1.964725236081902    
    0.4426544642712985         1.959347221171413    
    0.4478621638509608         1.953867472098106    
    0.4530698634306232         1.948285707065868    
    0.4582775630102855         1.942601687431997    
    0.4634852625899478         1.936815218239490    
    0.4686929621696102         1.930926148710251    
    0.4739006617492725         1.924934372698883    
    0.4791083613289349         1.918839829106720    
    0.4843160609085972         1.912642502255828    
    0.4895237604882595         1.906342422222726    
    0.4947314600679218         1.899939665131646    
    0.4999391596475842         1.893434353407155    
    0.5051468592272466         1.886826655986055    
    0.5103545588069088         1.880116788488476    
    0.5155622583865712         1.873305013348143    
    0.5207699579662335         1.866391639901832    
    0.5259776575458959         1.859377024438084    
    0.5311853571255581         1.852261570205274    
    0.5363930567052205         1.845045727379176    
    0.5416007562848828         1.837729992990216    
    0.5468084558645452         1.830314910810633    
    0.5520161554442076         1.822801071201839    
    0.5572238550238698         1.815189110922237    
    0.5624315546035322         1.807479712895904    
    0.5676392541831945         1.799673605942475    
    0.5728469537628569         1.791771564468690    
    0.5780546533425192         1.783774408122034    
    0.5832623529221815         1.775683003429345    
    0.5884700525018439         1.767498263861793    
    0.5936777520815062         1.759221135633735    
    0.5988854516611686         1.750852615156863    
    0.6040931512408309         1.742393741800520    
    0.6093008508204932         1.733845597331263    
    0.6145085504001555         1.725209305317206    
    0.6197162499798179         1.716486030499413    
    0.6249239495594803         1.707676978131122    
    0.6301316491391425         1.698783393285582    
    0.6353393487188049         1.689806560133311    
    0.6405470482984672         1.680747801189653    
    0.6457547478781296         1.671608476533463    
    0.6509624474577919         1.662389982997840    
    0.6561701470374542         1.653093753333826    
    0.6613778466171165         1.643721255347994    
    0.6665855461967789         1.634273991014892    
    0.6717932457764413         1.624753495565325    
    0.6770009453561036         1.615161336551472    
    0.6822086449357659         1.605499112889829    
    0.6874163445154282         1.595768453883051    
    0.6926240440950906         1.585971018221674    
    0.6978317436747529         1.576108492966838    
    0.7030394432544153         1.566182592515021    
    0.7082471428340775         1.556195057545892    
    0.7134548424137399         1.546147653954355    
    0.7186625419934023         1.536042171767892    
    0.7238702415730646         1.525880424050274    
    0.7290779411527269         1.515664245792778    
    0.7342856407323892         1.505395492793991    
    0.7394933403120516         1.495076040529316    
    0.7447010398917139         1.484707783011300    
    0.7499087394713763         1.474292631641882    
    0.7551164390510386         1.463832514057664    
    0.7603241386307009         1.453329372969325    
    0.7655318382103633         1.442785164996264    
    0.7707395377900256         1.432201859497571    
    0.7759472373696880         1.421581437400414    
    0.7811549369493502         1.410925890026919    
    0.7863626365290126         1.400237217920612    
    0.7915703361086750         1.389517429673494    
    0.7967780356883373         1.378768540754765    
    0.8019857352679997         1.367992572342281    
    0.8071934348476619         1.357191550157719    
    0.8124011344273243         1.346367503306486    
    0.8176088340069866         1.335522463123345    
    0.8228165335866490         1.324658462024740    
    0.8280242331663112         1.313777532368783    
    0.8332319327459736         1.302881705323815    
    0.8384396323256360         1.291973009746493    
    0.8436473319052983         1.281053471070258    
    0.8488550314849607         1.270125110205099    
    0.8540627310646229         1.259189942449436    
    0.8592704306442853         1.248249976414966    
    0.8644781302239476         1.237307212965274    
    0.8696858298036100         1.226363644168979    
    0.8748935293832723         1.215421252268201    
    0.8801012289629346         1.204482008663036    
    0.8853089285425970         1.193547872912779    
    0.8905166281222593         1.182620791754553    
    0.8957243277019217         1.171702698139996    
    0.9009320272815839         1.160795510290631    
    0.9061397268612463         1.149901130772506    
    0.9113474264409086         1.139021445590680    
    0.9165551260205710         1.128158323304072    
    0.9217628256002334         1.117313614161196    
    0.9269705251798956         1.106489149257258    
    0.9321782247595580         1.095686739713039    
    0.9373859243392203         1.084908175876026    
    0.9425936239188827         1.074155226544126    
    0.9478013234985450         1.063429638212369    
    0.9530090230782073         1.052733134342888    
    0.9582167226578697         1.042067414658509    
    0.9634244222375320         1.031434154460191    
    0.9686321218171944         1.020835003968565    
    0.9738398213968567         1.010271587689791    
    0.9790475209765190        0.9997455038058992    
    0.9842552205561813        0.9892583235897654    
    0.9894629201358437        0.9788115908448541    
    0.9946706197155060        0.9684068213698134    
    0.9998783192951683        0.9580455024479871    
     1.005086018874831        0.9477290923618857    
     1.010293718454493        0.9374590199326203    
     1.015501418034155        0.9272366840842873    
     1.020709117613818        0.9170634534332595    
     1.025916817193480        0.9069406659023096    
     1.031124516773142        0.8968696283594801    
     1.036332216352805        0.8868516162815681    
     1.041539915932467        0.8768878734420954    
     1.046747615512129        0.8669796116235839    
     1.051955315091792        0.8571280103539541    
     1.057163014671454        0.8473342166668307    
     1.062370714251116        0.8375993448855281    
     1.067578413830779        0.8279244764304459    
     1.072786113410441        0.8183106596496224    
     1.077993812990103        0.8087589096721290    
     1.083201512569766        0.7992702082840206    
     1.088409212149428        0.7898455038264803    
     1.093616911729090        0.7804857111158404    
     1.098824611308753        0.7711917113851022    
     1.104032310888415        0.7619643522465813    
     1.109240010468077        0.7528044476752935    
     1.114447710047740        0.7437127780126589    
     1.119655409627402        0.7346900899901297    
     1.124863109207064        0.7257370967722940    
     1.130070808786727        0.7168544780190310    
     1.135278508366389        0.7080428799662553    
     1.140486207946051        0.6993029155248012    
     1.145693907525714        0.6906351643969764    
     1.150901607105376        0.6820401732103205    
     1.156109306685038        0.6735184556680701    
     1.161317006264701        0.6650704927158658    
     1.166524705844363        0.6566967327242041    
     1.171732405424025        0.6483975916861342    
     1.176940105003688        0.6401734534297119    
     1.182147804583350        0.6320246698447198    
     1.187355504163012        0.6239515611231321    
     1.192563203742675        0.6159544160128461    
     1.197770903322337        0.6080334920841848    
     1.202978602901999        0.6001890160086396    
     1.208186302481662        0.5924211838494066    
     1.213394002061324        0.5847301613631798    
     1.218601701640986        0.5771160843127456    
     1.223809401220649        0.5695790587898688    
     1.229017100800311        0.5621191615480036    
     1.234224800379973        0.5547364403443599    
     1.239432499959636        0.5474309142908501    
     1.244640199539298        0.5402025742134470    
     1.249847899118961        0.5330513830195138    
     1.255055598698623        0.5259772760726497    
     1.260263298278285        0.5189801615746287    
     1.265470997857947        0.5120599209539831    
     1.270678697437610        0.5052164092608341    
     1.275886397017272        0.4984494555675394    
     1.281094096596934        0.4917588633747833    
     1.286301796176597        0.4851444110227014    
     1.291509495756259        0.4786058521066771    
     1.296717195335922        0.4721429158974383    
     1.301924894915584        0.4657553077651028    
     1.307132594495246        0.4594427096068354    
     1.312340294074908        0.4532047802777818    
     1.317547993654571        0.4470411560249682    
     1.322755693234233        0.4409514509238610    
     1.327963392813895        0.4349352573172944    
     1.333171092393558        0.4289921462564933    
     1.338378791973220        0.4231216679439181    
     1.343586491552883        0.4173233521776931    
     1.348794191132545        0.4115967087969117    
     1.354001890712207        0.4059412279151614    
     1.359209590291869        0.4003563801867071    
     1.364417289871532        0.3948416179469511    
     1.369624989451194        0.3893963753225245    
     1.374832689030856        0.3840200686825177    
     1.380040388610519        0.3787120973052788    
     1.385248088190181        0.3734718440463755    
     1.390455787769844        0.3682986757806304    
     1.395663487349506        0.3631919427330970    
     1.400871186929168        0.3581509783364779    
     1.406078886508831        0.3531750997774966    
     1.411286586088493        0.3482636109216481    
     1.416494285668155        0.3434158058876100    
     1.421701985247817        0.3386309728594988    
     1.426909684827480        0.3339083979973609    
     1.432117384407142        0.3292473689846382    
     1.437325083986805        0.3246471781970701    
     1.442532783566467        0.3201071240246836    
     1.447740483146129        0.3156265104988670    
     1.452948182725792        0.3112046465557144    
     1.458155882305454        0.3068408453227575    
     1.463363581885116        0.3025344245024181    
     1.468571281464778        0.2982847065939983    
     1.473778981044441        0.2940910191797967    
     1.478986680624103        0.2899526949490381    
     1.484194380203766        0.2858690717209826    
     1.489402079783428        0.2818394925052482    
     1.494609779363090        0.2778633055580895    
     1.499817478942753        0.2739398644348963    
     1.505025178522415        0.2700685280373790    
     1.510232878102077        0.2662486606562180    
     1.515440577681739        0.2624796320093941    
     1.520648277261402        0.2587608172763736    
     1.525855976841064        0.2550915971283260    
     1.531063676420727        0.2514713577545302    
     1.536271376000389        0.2478994908851335    
     1.541479075580051        0.2443753938104193    
     1.546686775159714        0.2408984693967282    
     1.551894474739376        0.2374681260991774    
     1.557102174319038        0.2340837779713131    
     1.562309873898700        0.2307448446718369    
     1.567517573478363        0.2274507514685251    
     1.572725273058025        0.2242009292394725    
     1.577932972637688        0.2209948144717752    
     1.583140672217350        0.2178318492577697    
     1.588348371797012        0.2147114812889424    
     1.593556071376675        0.2116331638476042    
     1.598763770956337        0.2085963557964536    
     1.603971470535999        0.2056005215661082    
     1.609179170115661        0.2026451311407151    
     1.614386869695324        0.1997296600417225    
     1.619594569274986        0.1968535893099018    
     1.624802268854649        0.1940164054857168    
     1.630009968434311        0.1912176005881139    
     1.635217668013973        0.1884566720918113    
     1.640425367593636        0.1857331229031670    
     1.645633067173298        0.1830464613346953    
     1.650840766752960        0.1803962010783128    
     1.656048466332622        0.1777818611773749    
     1.661256165912285        0.1752029659975720    
     1.666463865491947        0.1726590451967445    
     1.671671565071610        0.1701496336936786    
     1.676879264651272        0.1676742716359458    
     1.682086964230934        0.1652325043668396    
     1.687294663810597        0.1628238823914634    
     1.692502363390259        0.1604479613420249    
     1.697710062969921        0.1581043019423814    
     1.702917762549583        0.1557924699718943    
     1.708125462129246        0.1535120362286256    
     1.713333161708908        0.1512625764919354    
     1.718540861288571        0.1490436714845127    
     1.723748560868233        0.1468549068338870    
     1.728956260447895        0.1446958730334576    
     1.734163960027558        0.1425661654030778    
     1.739371659607220        0.1404653840492338    
     1.744579359186882        0.1383931338248519    
     1.749787058766545        0.1363490242887658    
     1.754994758346207        0.1343326696648788    
     1.760202457925869        0.1323436888010519    
     1.765410157505532        0.1303817051277458    
     1.770617857085194        0.1284463466164474    
     1.775825556664856        0.1265372457379056    
     1.781033256244519        0.1246540394202042    
     1.786240955824181        0.1227963690067012    
     1.791448655403843        0.1209638802138461    
     1.796656354983506        0.1191562230889140    
     1.801864054563168        0.1173730519676670    
     1.807071754142830        0.1156140254319690    
     1.812279453722493        0.1138788062673727    
     1.817487153302155        0.1121670614206983    
     1.822694852881817        0.1104784619576227    
     1.827902552461480        0.1088126830202953    
     1.833110252041142        0.1071694037850001    
     1.838317951620804        0.1055483074198763    
     1.843525651200467        0.1039490810427166    
     1.848733350780129        0.1023714156788535    
     1.853941050359791        0.1008150062191516    
     1.859148749939454        0.9927955137811768E-01
     1.864356449519116        0.9776475365213785E-01
     1.869564149098778        0.9627031927785946E-01
     1.874771848678441        0.9479595819072588E-01
     1.879979548258103        0.9334138398367273E-01
     1.885187247837765        0.9190631386600127E-01
     1.890394947417428        0.9049046862243446E-01
     1.895602646997090        0.8909357257236532E-01
     1.900810346576752        0.8771535352930751E-01
     1.906018046156415        0.8635554276055687E-01
     1.911225745736077        0.8501387494706855E-01
     1.916433445315739        0.8369008814356027E-01
     1.921641144895402        0.8238392373884755E-01
     1.926848844475064        0.8109512641641546E-01
     1.932056544054726        0.7982344411523694E-01
     1.937264243634389        0.7856862799083911E-01
     1.942471943214051        0.7733043237662589E-01
     1.947679642793713        0.7610861474545974E-01
     1.952887342373376        0.7490293567151013E-01
     1.958095041953038        0.7371315879236831E-01
     1.963302741532700        0.7253905077143756E-01
     1.968510441112363        0.7138038126059933E-01
     1.973718140692025        0.7023692286315827E-01
     1.978925840271687        0.6910845109707285E-01
     1.984133539851350        0.6799474435847004E-01
     1.989341239431012        0.6689558388544939E-01
     1.994548939010674        0.6581075372217769E-01
     1.999756638590337        0.6474004068327784E-01
     2.004964338169999        0.6368323431851058E-01
     2.010172037749661        0.6264012687775465E-01
     2.015379737329324        0.6161051327628422E-01
     2.020587436908986        0.6059419106034505E-01
     2.025795136488648        0.5959096037303200E-01
     2.031002836068311        0.5860062392046667E-01
     2.036210535647973        0.5762298693827670E-01
     2.041418235227635        0.5665785715837968E-01
     2.046625934807298        0.5570504477606564E-01
     2.051833634386960        0.5476436241738585E-01
     2.057041333966622        0.5383562510684404E-01
     2.062249033546285        0.5291865023538761E-01
     2.067456733125947        0.5201325752870475E-01
     2.072664432705609        0.5111926901582264E-01
     2.077872132285272        0.5023650899800538E-01
     2.083079831864934        0.4936480401795614E-01
     2.088287531444597        0.4850398282931714E-01
     2.093495231024259        0.4765387636646980E-01
     2.098702930603921        0.4681431771463411E-01
     2.103910630183583        0.4598514208026397E-01
     2.109118329763246        0.4516618676174068E-01
     2.114326029342908        0.4435729112035957E-01
     2.119533728922570        0.4355829655161177E-01
     2.124741428502233        0.4276904645675804E-01
     2.129949128081895        0.4198938621469265E-01
     2.135156827661557        0.4121916315409784E-01
     2.140364527241220        0.4045822652588548E-01
     2.145572226820882        0.3970642747592398E-01
     2.150779926400544        0.3896361901805076E-01
     2.155987625980207        0.3822965600736621E-01
     2.161195325559869        0.3750439511380903E-01
     2.166403025139531        0.3678769479600907E-01
     2.171610724719194        0.3607941527541814E-01
     2.176818424298856        0.3537941851071510E-01
     2.182026123878519        0.3468756817248254E-01
     2.187233823458181        0.3400372961815634E-01
     2.192441523037843        0.3332776986724069E-01
     2.197649222617506        0.3265955757679152E-01
     2.202856922197168        0.3199896301716357E-01
     2.208064621776830        0.3134585804801773E-01
     2.213272321356492        0.3070011609459010E-01
     2.218480020936155        0.3006161212421612E-01
     2.223687720515817        0.2943022262311105E-01
     2.228895420095479        0.2880582557340235E-01
     2.234103119675142        0.2818830043041139E-01
     2.239310819254804        0.2757752810018549E-01
     2.244518518834466        0.2697339091727118E-01
     2.249726218414129        0.2637577262273454E-01
     2.254933917993791        0.2578455834241924E-01
     2.260141617573454        0.2519963456544343E-01
     2.265349317153116        0.2462088912293238E-01
     2.270557016732778        0.2404821116698326E-01
     2.275764716312441        0.2348149114986230E-01
     2.280972415892103        0.2292062080342759E-01
     2.286180115471765        0.2236549311877924E-01
     2.291387815051428        0.2181600232613216E-01
     2.296595514631090        0.2127204387490899E-01
     2.301803214210752        0.2073351441405118E-01
     2.307010913790414        0.2020031177254547E-01
     2.312218613370077        0.1967233494016447E-01
     2.317426312949739        0.1914948404841519E-01
     2.322634012529401        0.1863166035169864E-01
     2.327841712109064        0.1811876620867205E-01
     2.333049411688726        0.1761070506381614E-01
     2.338257111268388        0.1710738142920101E-01
     2.343464810848051        0.1660870086645114E-01
     2.348672510427713        0.1611456996890564E-01
     2.353880210007376        0.1562489634397083E-01
     2.359087909587038        0.1513958859714247E-01
     2.364295609166700        0.1465855639932665E-01
     2.369503308746363        0.1418171150269213E-01
     2.374711008326025        0.1370897228352159E-01
     2.379918707905687        0.1324027374998645E-01
     2.385126407485350        0.1277558116564614E-01
     2.390334107065012        0.1231490317412593E-01
     2.395541806644674        0.1185830117141081E-01
     2.400749506224336        0.1140589367760181E-01
     2.405957205803999        0.1095785600898633E-01
     2.411164905383661        0.1051441629501894E-01
     2.416372604963323        0.1007584904481632E-01
     2.421580304542986        0.9642467330731585E-02
     2.426788004122648        0.9214614417024633E-02
     2.431995703702310        0.8792655420199014E-02
     2.437203403281973        0.8376969384805718E-02
     2.442411102861635        0.7967942003691539E-02
     2.447618802441298        0.7565959100642865E-02
     2.452826502020960        0.7171400917548066E-02
     2.458034201600622        0.6784637198797057E-02
     2.463241901180285        0.6406023035155669E-02
     2.468449600759947        0.6035895411988765E-02
     2.473657300339609        0.5674570398122998E-02
     2.478864999919272        0.5322340908784912E-02
     2.484072699498934        0.4979474976734733E-02
     2.489280399078596        0.4646214468484278E-02
     2.494488098658258        0.4322774186301511E-02
     2.499695798237921        0.4009341300896809E-02
     2.504903497817583        0.3706075063754546E-02
     2.510111197397245        0.3413106751663648E-02
     2.515318896976908        0.3130539798786056E-02
     2.520526596556570        0.2858450073232491E-02
     2.525734296136232        0.2596886255119787E-02
     2.530941995715895        0.2345870270736839E-02
     2.536149695295557        0.2105397731542169E-02
     2.541357394875220        0.1875438315152128E-02
     2.546565094454882        0.1655936004446289E-02
     2.551772794034544        0.1446809063184781E-02
     2.556980493614207        0.1247949557782819E-02
     2.562188193193869        0.1059222105001338E-02
     2.567395892773531        0.8804612665738605E-03
     2.572603592353194        0.7114664584058603E-03
     2.577811291932856        0.5519919424631643E-03
     2.583018991512518        0.4017260089005337E-03
     2.588226691092181        0.2602424401211829E-03
     2.593434390671843        0.1268608823695852E-03
     2.598642090251505         0.000000000000000    
  0  4  1  0  2.000000   #orbital l, n, z, is_polarized, population
 500    0.1410542210036752E-01     7.038605628083395     # npts, delta, cutoff
     0.000000000000000         1.015978785605209    
    0.1410542210036752E-01     1.015702643684601    
    0.2821084420073505E-01     1.014950018342589    