<preamble>

<basis_specs>
===============================================================================
Mo                   Z=  42    Mass=  95.950        Charge= 0.17977+309
Lmxo=2 Lmxkb= 2    BasisType=split      Semic=T
L=0  Nsemic=1  Cnfigmx=5
          i=1  nzeta=1  polorb=0  (4s)  (semicore shell)
            splnorm:   0.15000    
               vcte:    40.000    
               rinn:    2.7627    
               qcoe:    0.0000    
               qyuk:    0.0000    
               qwid:   0.10000E-01
                rcs:    3.0697    
            lambdas:    1.0000    
          i=2  nzeta=2  polorb=0  (5s)  (to be polarized non-perturbatively)
            splnorm:   0.15000    
               vcte:    40.000    
               rinn:    7.3614    
               qcoe:    0.0000    
               qyuk:    0.0000    
               qwid:   0.10000E-01
                rcs:    8.1793      5.9724    
            lambdas:    1.0000      1.0000    
L=1  Nsemic=1  Cnfigmx=5
          i=1  nzeta=1  polorb=0  (4p)  (semicore shell)
            splnorm:   0.15000    
               vcte:    40.000    
               rinn:    3.1697    
               qcoe:    0.0000    
               qyuk:    0.0000    
               qwid:   0.10000E-01
                rcs:    3.5183    
            lambdas:    1.0000    
          i=2  nzeta=1  polorb=0  (5p)  (non-perturbative polarization shell)
            splnorm:   0.15000    
               vcte:    40.000    
               rinn:    7.3688    
               qcoe:    0.0000    
               qyuk:    0.0000    
               qwid:   0.10000E-01
                rcs:    8.1793    
            lambdas:    1.0000    
L=2  Nsemic=0  Cnfigmx=4
          i=1  nzeta=2  polorb=0  (4d)
            splnorm:   0.15000    
               vcte:    40.000    
               rinn:    5.5392    
               qcoe:    0.0000    
               qyuk:    0.0000    
               qwid:   0.10000E-01
                rcs:    6.1546      4.0730    
            lambdas:    1.0000      1.0000    
-------------------------------------------------------------------------------
L=0  Nkbl=2  erefs: 0.17977+309 0.17977+309
L=1  Nkbl=2  erefs: 0.17977+309 0.17977+309
L=2  Nkbl=1  erefs: 0.17977+309
===============================================================================
</basis_specs>

<pseudopotential_header>
 Mo pw nrl pcec
 ONCVPSP-3.2018-03-09Hamann's oncvpsp                        
 4s 2.00  r= 1.46/4p 6.00  r= 1.46/4d 5.00  r= 1.35/                    4s:4p:4d:5s:
</pseudopotential_header>
</preamble>
Mo                            # Symbol
Mo                            # Label
   42                         # Atomic number
     14.0000000000                             # Valence charge
     95.9500000000        # Mass 
     249.710552623        # Self energy 
   2   7                      # Lmax for basis, no. of nl orbitals 
   2   6                      # Lmax for projectors, no. of nl KB projectors
# PAOs:__________________________
  0  4  1  0  2.000000   #orbital l, n, z, is_polarized, population
 500    0.6151688745038297E-02     3.069692683774111     # npts, delta, cutoff
     0.000000000000000        0.1662139233221689    
    0.6151688745038297E-02    0.1663889697941370    
    0.1230337749007659E-01    0.1669255843082993    
    0.1845506623511489E-01    0.1678194984071690    
    0.2460675498015319E-01    0.1690700395349754    
    0.3075844372519149E-01    0.1706762688890600    
    0.3691013247022978E-01    0.1726369812516959    
    0.4306182121526808E-01    0.1749507059729832    
    0.4921350996030638E-01    0.1776157083153753    
    0.5536519870534468E-01    0.1806299910706196    
    0.6151688745038297E-01    0.1839912964296760    
    0.6766857619542127E-01    0.1876971080986421    
    0.7382026494045957E-01    0.1917446536566110    
    0.7997195368549787E-01    0.1961309071521253    
    0.8612364243053616E-01    0.2008525919349432    
    0.9227533117557446E-01    0.2059061837197370    
    0.9842701992061276E-01    0.2112879138781575    
    0.1045787086656511        0.2169937729554512    
    0.1107303974106894        0.2230195144076153    
    0.1168820861557276        0.2293606585548270    
    0.1230337749007659        0.2360124967466536    
    0.1291854636458042        0.2429700957343333    
    0.1353371523908425        0.2502283022451761    
    0.1414888411358808        0.2577817477539359    
    0.1476405298809191        0.2656248534457686    
    0.1537922186259574        0.2737518353652019    
    0.1599439073709957        0.2821567097453326    
    0.1660955961160340        0.2908332985112823    
    0.1722472848610723        0.2997752349517490    
    0.1783989736061106        0.3089759695523103    
    0.1845506623511489        0.3184287759839668    
    0.1907023510961872        0.3281267572402551    
    0.1968540398412255        0.3380628519160982    
    0.2030057285862638        0.3482298406214179    
    0.2091574173313021        0.3586203525223992    
    0.2153091060763404        0.3692268720031648    
    0.2214607948213787        0.3800417454405045    
    0.2276124835664170        0.3910571880841883    
    0.2337641723114553        0.4022652910353025    
    0.2399158610564936        0.4136580283149415    
    0.2460675498015319        0.4252272640155300    
    0.2522192385465702        0.4369647595269622    
    0.2583709272916085        0.4488621808296879    
    0.2645226160366468        0.4609111058468374    
    0.2706743047816851        0.4731030318474196    
    0.2768259935267234        0.4854293828926086    
    0.2829776822717617        0.4978815173171141    
    0.2891293710168000        0.5104507352376163    
    0.2952810597618383        0.5231282860802475    
    0.3014327485068766        0.5359053761191146    
    0.3075844372519149        0.5487731760178816    
    0.3137361259969532        0.5617228283664509    
    0.3198878147419915        0.5747454552048303    
    0.3260395034870298        0.5878321655263200    
    0.3321911922320681        0.6009740627522219    
    0.3383428809771064        0.6141622521703169    
    0.3444945697221447        0.6273878483294854    
    0.3506462584671829        0.6406419823828616    
    0.3567979472122212        0.6539158093720936    
    0.3629496359572595        0.6672005154453104    
    0.3691013247022978        0.6804873250015687    
    0.3752530134473361        0.6937675077546455    
    0.3814047021923744        0.7070323857091865    
    0.3875563909374127        0.7202733400423615    
    0.3937080796824510        0.7334818178843201    
    0.3998597684274893        0.7466493389909080    
    0.4060114571725276        0.7597675023022568    
    0.4121631459175659        0.7728279923810421    
    0.4183148346626042        0.7858225857243771    
    0.4244665234076425        0.7987431569435007    
    0.4306182121526808        0.8115816848055984    
    0.4367699008977191        0.8243302581323051    
    0.4429215896427574        0.8369810815496462    
    0.4490732783877957        0.8495264810843579    
    0.4552249671328340        0.8619589096017846    
    0.4613766558778723        0.8742709520807175    
    0.4675283446229106        0.8864553307208224    
    0.4736800333679489        0.8985049098784812    
    0.4798317221129872        0.9104127008271363    
    0.4859834108580255        0.9221718663384567    
    0.4921350996030638        0.9337757250808714    
    0.4982867883481021        0.9452177558322840    
    0.5044384770931404        0.9564916015039948    
    0.5105901658381786        0.9675910729731357    
    0.5167418545832170        0.9785101527211502    
    0.5228935433282553        0.9892429982761083    
    0.5290452320732936        0.9997839454569146    
    0.5351969208183318         1.010127511417680    
    0.5413486095633702         1.020268397490825    
    0.5475002983084085         1.030201491827707    
    0.5536519870534468         1.039921871835833    
    0.5598036757984850         1.049424806411947    
    0.5659553645435234         1.058705757970579    
    0.5721070532885617         1.067760384267819    
    0.5782587420335999         1.076584540020419    
    0.5844104307786382         1.085174278320477    
    0.5905621195236765         1.093525851846283    
    0.5967138082687149         1.101635713870078    
    0.6028654970137531         1.109500519063782    
    0.6090171857587914         1.117117124103900    
    0.6151688745038297         1.124482588077145    
    0.6213205632488681         1.131594172688433    
    0.6274722519939063         1.138449342273230    
    0.6336239407389446         1.145045763616368    
    0.6397756294839829         1.151381305579700    
    0.6459273182290213         1.157454038541184    
    0.6520790069740595         1.163262233648122    
    0.6582306957190978         1.168804361887566    
    0.6643823844641361         1.174079092977010    
    0.6705340732091745         1.179085294078741    
    0.6766857619542127         1.183822028341320    
    0.6828374506992509         1.188288553271940    
    0.6889891394442893         1.192484318943448    
    0.6951408281893277         1.196408966040083    
    0.7012925169343659         1.200062323746078    
    0.7074442056794041         1.203444407481398    
    0.7135958944244425         1.206555416489092    
    0.7197475831694808         1.209395731278780    
    0.7258992719145191         1.211965910930980    
    0.7320509606595573         1.214266690267051    
    0.7382026494045957         1.216298976889659    
    0.7443543381496340         1.218063848098747    
    0.7505060268946723         1.219562547688096    
    0.7566577156397105         1.220796482627625    
    0.7628094043847489         1.221767219636665    
    0.7689610931297872         1.222476481653492    
    0.7751127818748255         1.222926144206476    
    0.7812644706198637         1.223118231692232    
    0.7874161593649021         1.223054913566192    
    0.7935678481099404         1.222738500451085    
    0.7997195368549787         1.222171440168789    
    0.8058712256000169         1.221356313701057    
    0.8120229143450552         1.220295831084623    
    0.8181746030900936         1.218992827246187    
    0.8243262918351318         1.217450257782778    
    0.8304779805801701         1.215671194692961    
    0.8366296693252084         1.213658822064336    
    0.8427813580702468         1.211416431722768    
    0.8489330468152850         1.208947418848702    
    0.8550847355603233         1.206255277565915    
    0.8612364243053616         1.203343596507959    
    0.8673881130504000         1.200216054367550    
    0.8735398017954382         1.196876415434027    
    0.8796914905404765         1.193328525123956    
    0.8858431792855148         1.189576305509914    
    0.8919948680305532         1.185623750852327    
    0.8981465567755914         1.181474923185766    
    0.9042982455206297         1.177133947766896    
    0.9104499342656680         1.172605008676864    
    0.9166016230107064         1.167892344474147    
    0.9227533117557446         1.163000243775719    
    0.9289050005007828         1.157933040905070    
    0.9350566892458212         1.152695111574871    
    0.9412083779908595         1.147290868608327    
    0.9473600667358978         1.141724757703136    
    0.9535117554809360         1.136001253241852    
    0.9596634442259744         1.130124854152299    
    0.9658151329710127         1.124100079821564    
    0.9719668217160510         1.117931466066938    
    0.9781185104610892         1.111623561167057    
    0.9842701992061276         1.105180921956321    
    0.9904218879511659         1.098608109985550    
    0.9965735766962042         1.091909687751683    
     1.002725265441242         1.085090214999160    
     1.008876954186281         1.078154245095508    
     1.015028642931319         1.071106321483478    
     1.021180331676357         1.063950974211942    
     1.027332020421396         1.056692716547606    
     1.033483709166434         1.049336041669461    
     1.039635397911472         1.041885419447701    
     1.045787086656511         1.034345293308754    
     1.051938775401549         1.026720077187863    
     1.058090464146587         1.019014152570554    
     1.064242152891625         1.011231865624158    
     1.070393841636664         1.003377524420413    
     1.076545530381702        0.9954553962500485    
     1.082697219126740        0.9874697050301066    
     1.088848907871779        0.9794246288045974    
     1.095000596616817        0.9713242973390024    
     1.101152285361855        0.9631727898089538    
     1.107303974106894        0.9549741325833320    
     1.113455662851932        0.9467322971018781    
     1.119607351596970        0.9384511978472961    
     1.125759040342008        0.9301346904117205    
     1.131910729087047        0.9217865696572876    
     1.138062417832085        0.9134105679704535    
     1.144214106577123        0.9050103536095957    
     1.150365795322162        0.8965895291453186    
     1.156517484067200        0.8881516299928059    
     1.162669172812238        0.8797001230354501    
     1.168820861557276        0.8712384053389119    
     1.174972550302315        0.8627698029546653    
     1.181124239047353        0.8542975698120215    
     1.187275927792391        0.8458248866975221    
     1.193427616537430        0.8373548603205413    
     1.199579305282468        0.8288905224638652    
     1.205730994027506        0.8204348292179369    
     1.211882682772545        0.8119906602974226    
     1.218034371517583        0.8035608184386764    
     1.224186060262621        0.7951480288766467    
     1.230337749007659        0.7867549388997138    
     1.236489437752698        0.7783841174809136    
     1.242641126497736        0.7700380549839477    
     1.248792815242774        0.7617191629423899    
     1.254944503987813        0.7534297739104037    
     1.261096192732851        0.7451721413833374    
     1.267247881477889        0.7369484397864766    
     1.273399570222927        0.7287607645302602    
     1.279551258967966        0.7206111321302456    
     1.285702947713004        0.7125014803900785    
     1.291854636458043        0.7044336686457432    
     1.298006325203081        0.6964094780693619    
     1.304158013948119        0.6884306120307979    
     1.310309702693157        0.6804986965153452    
     1.316461391438196        0.6726152805957858    
     1.322613080183234        0.6647818369570840    
     1.328764768928272        0.6569997624720516    
     1.334916457673311        0.6492703788262890    
     1.341068146418349        0.6415949331907391    
     1.347219835163387        0.6339745989402225    
     1.353371523908425        0.6264104764163326    
     1.359523212653464        0.6189035937331124    
     1.365674901398502        0.6114549076239278    
     1.371826590143540        0.6040653043280144    
     1.377978278888579        0.5967356005152054    
     1.384129967633617        0.5894665442473391    
     1.390281656378655        0.5822588159749222    
     1.396433345123693        0.5751130295676417    
     1.402585033868732        0.5680297333773492    
     1.408736722613770        0.5610094113152071    
     1.414888411358808        0.5540524838657840    
     1.421040100103847        0.5471593094607471    
     1.427191788848885        0.5403301859971934    
     1.433343477593923        0.5335653521643601    
     1.439495166338962        0.5268649871508175    
     1.445646855084000        0.5202292108849966    
     1.451798543829038        0.5136580863726555    
     1.457950232574077        0.5071516255486120    
     1.464101921319115        0.5007097960783502    
     1.470253610064153        0.4943325289530419    
     1.476405298809191        0.4880197261440199    
     1.482556987554230        0.4817712673898325    
     1.488708676299268        0.4755870131457119    
     1.494860365044306        0.4694668044006164    
     1.501012053789345        0.4634104616584528    
     1.507163742534383        0.4574177854664319    
     1.513315431279421        0.4514885577637280    
     1.519467120024459        0.4456225431273514    
     1.525618808769498        0.4398194895964253    
     1.531770497514536        0.4340791293835509    
     1.537922186259574        0.4284011789711938    
     1.544073875004613        0.4227853405487594    
     1.550225563749651        0.4172313030528336    
     1.556377252494689        0.4117387425872138    
     1.562528941239727        0.4063073231027552    
     1.568680629984766        0.4009366970540919    
     1.574832318729804        0.3956265060335886    
     1.580984007474842        0.3903763813832038    
     1.587135696219881        0.3851859447848986    
     1.593287384964919        0.3800548088302355    
     1.599439073709957        0.3749825775697770    
     1.605590762454996        0.3699688470428815    
     1.611742451200034        0.3650132057884967    
     1.617894139945072        0.3601152353374956    
     1.624045828690110        0.3552745106871427    
     1.630197517435149        0.3504906007582039    
     1.636349206180187        0.3457630688352411    
     1.642500894925225        0.3410914729906108    
     1.648652583670264        0.3364753664926430    
     1.654804272415302        0.3319142981985241    
     1.660955961160340        0.3274078129323134    
     1.667107649905379        0.3229554518485928    
     1.673259338650417        0.3185567527821754    
     1.679411027395455        0.3142112505843135    
     1.685562716140494        0.3099184774458380    
     1.691714404885532        0.3056779632076281    
     1.697866093630570        0.3014892356588233    
     1.704017782375608        0.2973518208231675    
     1.710169471120647        0.2932652432338488    
     1.716321159865685        0.2892290261972287    
     1.722472848610723        0.2852426920457942    
     1.728624537355762        0.2813057623806925    
     1.734776226100800        0.2774177583041896    
     1.740927914845838        0.2735782006423680    
     1.747079603590876        0.2697866101583932    
     1.753231292335915        0.2660425077566529    
     1.759382981080953        0.2623454146780776    
     1.765534669825991        0.2586948526869133    
     1.771686358571030        0.2550903442492596    
     1.777838047316068        0.2515314127036234    
     1.783989736061106        0.2480175824237647    
     1.790141424806144        0.2445483789740943    
     1.796293113551183        0.2411233292578720    
     1.802444802296221        0.2377419616584519    
     1.808596491041259        0.2344038061738035    
     1.814748179786298        0.2311083945445490    
     1.820899868531336        0.2278552603757330    
     1.827051557276374        0.2246439392525394    
     1.833203246021413        0.2214739688501667    
     1.839354934766451        0.2183448890380661    
     1.845506623511489        0.2152562419787381    
     1.851658312256528        0.2122075722212728    
     1.857810001001566        0.2091984267898286    
     1.863961689746604        0.2062283552672219    
     1.870113378491642        0.2032969098738020    
     1.876265067236681        0.2004036455417831    
     1.882416755981719        0.1975481199851894    
     1.888568444726757        0.1947298937655795    
     1.894720133471796        0.1919485303536992    
     1.900871822216834        0.1892035961872106    
     1.907023510961872        0.1864946607246391    
     1.913175199706910        0.1838212964956848    
     1.919326888451949        0.1811830791480253    
     1.925478577196987        0.1785795874907441    
     1.931630265942025        0.1760104035345113    
     1.937781954687064        0.1734751125286345    
     1.943933643432102        0.1709733029951055    
     1.950085332177140        0.1685045667597516    
     1.956237020922178        0.1660684989806052    
     1.962388709667217        0.1636646981735979    
     1.968540398412255        0.1612927662356828    
     1.974692087157293        0.1589523084654861    
     1.980843775902332        0.1566429335815883    
     1.986995464647370        0.1543642537385214    
     1.993147153392408        0.1521158845405833    
     1.999298842137447        0.1498974450535457    
     2.005450530882485        0.1477085578143535    
     2.011602219627523        0.1455488488388867    
     2.017753908372562        0.1434179476278733    
     2.023905597117600        0.1413154871710230    
     2.030057285862638        0.1392411039494615    
     2.036208974607677        0.1371944379365340    
     2.042360663352714        0.1351751325970523    
     2.048512352097753        0.1331828348850422    
     2.054664040842791        0.1312171952400712    
     2.060815729587830        0.1292778675822053    
     2.066967418332868        0.1273645093056656    
     2.073119107077906        0.1254767812712363    
     2.079270795822945        0.1236143477974847    
     2.085422484567983        0.1217768766508477    
     2.091574173313021        0.1199640390346359    
     2.097725862058059        0.1181755095770054    
     2.103877550803098        0.1164109663179502    
     2.110029239548136        0.1146700906953612    
     2.116180928293174        0.1129525675301942    
     2.122332617038213        0.1112580850107957    
     2.128484305783251        0.1095863346764276    
     2.134635994528289        0.1079370114000309    
     2.140787683273327        0.1063098133702697    
     2.146939372018366        0.1047044420728918    
     2.153091060763404        0.1031206022714459    
     2.159242749508442        0.1015580019873884    
     2.165394438253481        0.1000163524796136    
     2.171546126998519        0.9849536822344387E-01
     2.177697815743557        0.9699476688910769E-01
     2.183849504488596        0.9551426931973880E-01
     2.190001193233634        0.9405359950892590E-01
     2.196152881978672        0.9261248457783965E-01
     2.202304570723710        0.9119065475196533E-01
     2.208456259468749        0.8978784333746899E-01
     2.214607948213787        0.8840378669722096E-01
     2.220759636958825        0.8703822422650019E-01
     2.226911325703864        0.8569089832840546E-01
     2.233063014448902        0.8436155438899476E-01
     2.239214703193940        0.8304994075217488E-01
     2.245366391938978        0.8175580869435971E-01
     2.251518080684017        0.8047891239892352E-01
     2.257669769429055        0.7921900893046133E-01
     2.263821458174093        0.7797585820887962E-01
     2.269973146919132        0.7674922298333277E-01
     2.276124835664170        0.7553886880602549E-01
     2.282276524409208        0.7434456400589265E-01
     2.288428213154247        0.7316607966217667E-01
     2.294579901899285        0.7200318957791735E-01
     2.300731590644323        0.7085567025336337E-01
     2.306883279389361        0.6972330085932726E-01
     2.313034968134400        0.6860586321049213E-01
     2.319186656879438        0.6750314173868102E-01
     2.325338345624476        0.6641492346610826E-01
     2.331490034369515        0.6534099797861780E-01
     2.337641723114553        0.6428115739892133E-01
     2.343793411859591        0.6323519635984945E-01
     2.349945100604629        0.6220291197762360E-01
     2.356096789349668        0.6118410382515799E-01
     2.362248478094706        0.6017857390540346E-01
     2.368400166839745        0.5918612662473950E-01
     2.374551855584783        0.5820656876642380E-01
     2.380703544329821        0.5723970946410895E-01
     2.386855233074860        0.5628536017543068E-01
     2.393006921819897        0.5534333465567810E-01
     2.399158610564936        0.5441344893155054E-01
     2.405310299309974        0.5349552127500939E-01
     2.411461988055013        0.5258937217722987E-01
     2.417613676800051        0.5169482432265927E-01
     2.423765365545089        0.5081170256318660E-01
     2.429917054290128        0.4993983389243067E-01
     2.436068743035166        0.4907904742014936E-01
     2.442220431780204        0.4822917434677559E-01
     2.448372120525242        0.4739004793808698E-01
     2.454523809270281        0.4656150350000762E-01
     2.460675498015319        0.4574337835355329E-01
     2.466827186760357        0.4493551180991665E-01
     2.472978875505396        0.4413774514570104E-01
     2.479130564250434        0.4334992157830536E-01
     2.485282252995472        0.4257188624145871E-01
     2.491433941740510        0.4180348616091441E-01
     2.497585630485549        0.4104457023030077E-01
     2.503737319230587        0.4029498918713317E-01
     2.509889007975625        0.3955459558898939E-01
     2.516040696720664        0.3882324378985059E-01
     2.522192385465702        0.3810078991660908E-01
     2.528344074210740        0.3738709184574516E-01
     2.534495762955778        0.3668200918017434E-01
     2.540647451700817        0.3598540322626706E-01
     2.546799140445855        0.3529713697104050E-01
     2.552950829190893        0.3461707505952566E-01
     2.559102517935932        0.3394508377230983E-01
     2.565254206680970        0.3328103100325392E-01
     2.571405895426008        0.3262478623738826E-01
     2.577557584171047        0.3197622052898472E-01
     2.583709272916085        0.3133520647980757E-01
     2.589860961661123        0.3070161821754229E-01
     2.596012650406161        0.3007533137440240E-01
     2.602164339151200        0.2945622306591702E-01
     2.608316027896238        0.2884417186989497E-01
     2.614467716641276        0.2823905780556913E-01
     2.620619405386315        0.2764076231291956E-01
     2.626771094131353        0.2704916823217391E-01
     2.632922782876391        0.2646415978348777E-01
     2.639074471621429        0.2588562254680117E-01
     2.645226160366468        0.2531344344187435E-01
     2.651377849111506        0.2474751070849798E-01
     2.657529537856544        0.2418771388688237E-01
     2.663681226601583        0.2363394379822092E-01
     2.669832915346621        0.2308609252542797E-01
     2.675984604091660        0.2254405339405243E-01
     2.682136292836698        0.2200772095336335E-01
     2.688287981581736        0.2147699095760853E-01
     2.694439670326774        0.2095176034744459E-01
     2.700591359071812        0.2043192723153691E-01
     2.706743047816851        0.1991739086833096E-01
     2.712894736561889        0.1940805164798893E-01
     2.719046425306928        0.1890381107449664E-01
     2.725198114051966        0.1840457174793418E-01
     2.731349802797004        0.1791023734691287E-01
     2.737501491542042        0.1742071261117489E-01
     2.743653180287080        0.1693590332435560E-01
     2.749804869032119        0.1645571629690744E-01
     2.755956557777157        0.1598005934918183E-01
     2.762108246522196        0.1550884129467110E-01
     2.768259935267234        0.1504197192340579E-01
     2.774411624012272        0.1457936198550796E-01
     2.780563312757311        0.1412092317496463E-01
     2.786715001502349        0.1366656812629077E-01
     2.792866690247387        0.1321621073212969E-01
     2.799018378992425        0.1276976857034826E-01
     2.805170067737464        0.1232717048349657E-01
     2.811321756482502        0.1188836966637176E-01
     2.817473445227540        0.1145335864853327E-01
     2.823625133972579        0.1102218180360594E-01
     2.829776822717617        0.1059494284888255E-01
     2.835928511462655        0.1017180688172319E-01
     2.842080200207693        0.9752997772588283E-02
     2.848231888952732        0.9338792205442153E-02
     2.854383577697770        0.8929511642581213E-02
     2.860535266442808        0.8525513266730322E-02
     2.866686955187847        0.8127180679715441E-02
     2.872838643932885        0.7734914888735387E-02
     2.878990332677923        0.7349125913282543E-02
     2.885142021422961        0.6970225199441198E-02
     2.891293710168000        0.6598618925879185E-02
     2.897445398913038        0.6234702217415677E-02
     2.903597087658076        0.5878854238523515E-02
     2.909748776403115        0.5531434113136947E-02
     2.915900465148153        0.5192777603121739E-02
     2.922052153893191        0.4863194471678774E-02
     2.928203842638229        0.4542966456930525E-02
     2.934355531383268        0.4232345783010029E-02
     2.940507220128306        0.3931554139766731E-02
     2.946658908873344        0.3640782066816643E-02
     2.952810597618383        0.3360188682453448E-02
     2.958962286363421        0.3089901702473882E-02
     2.965113975108459        0.2830017697888316E-02
     2.971265663853498        0.2580602543481132E-02
     2.977417352598536        0.2341692010853888E-02
     2.983569041343574        0.2113292459412723E-02
     2.989720730088612        0.1895381575860831E-02
     2.995872418833651        0.1687909105687688E-02
     3.002024107578689        0.1490797506268730E-02
     3.008175796323727        0.1303942425668782E-02
     3.014327485068766        0.1127212864637175E-02
     3.020479173813804        0.9604507923554864E-03
     3.026630862558842        0.8034698173561843E-03
     3.032782551303880        0.6560521654509355E-03
     3.038934240048919        0.5179424331617060E-03
     3.045085928793957        0.3888346303018257E-03
     3.051237617538995        0.2683433663298645E-03
     3.057389306284034        0.1559301524570849E-03
     3.063540995029072        0.5064263467346619E-04
     3.069692683774111         0.000000000000000    
  0  5  1  0  1.000000   #orbital l, n, z, is_polarized, population
 500    0.1639140557554026E-01     8.179311382194589     # npts, delta, cutoff
     0.000000000000000        0.6673928070283562E-01
    0.1639140557554026E-01    0.6723434561113474E-01
    0.3278281115108052E-01    0.6872078018778202E-01