<preamble>

<basis_specs>
===============================================================================
Ne                   Z=  10    Mass=  20.180        Charge= 0.17977+309
Lmxo=2 Lmxkb= 1    BasisType=split      Semic=F
L=0  Nsemic=0  Cnfigmx=2
          i=1  nzeta=2  polorb=0  (2s)
            splnorm:   0.15000    
               vcte:    40.000    
               rinn:    2.8301    
               qcoe:    0.0000    
               qyuk:    0.0000    
               qwid:   0.10000E-01
                rcs:    3.1445      1.8976    
            lambdas:    1.0000      1.0000    
L=1  Nsemic=0  Cnfigmx=2
          i=1  nzeta=2  polorb=1  (2p)  (to be polarized perturbatively)
            splnorm:   0.15000    
               vcte:    40.000    
               rinn:    3.4935    
               qcoe:    0.0000    
               qyuk:    0.0000    
               qwid:   0.10000E-01
                rcs:    3.8816      2.3199    
            lambdas:    1.0000      1.0000    
L=2  Nsemic=0  Cnfigmx=3
          i=1  nzeta=0  polorb=0  (3d)  (perturbative polarization orbital) (from 2p)
-------------------------------------------------------------------------------
L=0  Nkbl=1  erefs: 0.17977+309
L=1  Nkbl=1  erefs: 0.17977+309
===============================================================================
</basis_specs>

<pseudopotential_header>
 Ne pw nrl nc  
 ONCVPSP-3.2018-03-09Hamann's oncvpsp                        
 2s 2.00  r= 1.31/2p 6.00  r= 1.71/                                     2s:2p:
</pseudopotential_header>
</preamble>
Ne                            # Symbol
Ne                            # Label
   10                         # Atomic number
     8.00000000000                             # Valence charge
     20.1800000000        # Mass 
     79.2334171681        # Self energy 
   2   5                      # Lmax for basis, no. of nl orbitals 
   1   4                      # Lmax for projectors, no. of nl KB projectors
# PAOs:__________________________
  0  2  1  0  2.000000   #orbital l, n, z, is_polarized, population
 500    0.6301602000137085E-02     3.144499398068405     # npts, delta, cutoff
     0.000000000000000         2.355821508461019    
    0.6301602000137085E-02     2.355706077214373    
    0.1260320400027417E-01     2.355453807213887    
    0.1890480600041125E-01     2.355033419414382    
    0.2520640800054834E-01     2.354444944857509    
    0.3150801000068543E-01     2.353688442066444    
    0.3780961200082251E-01     2.352763988847896    
    0.4411121400095959E-01     2.351671681246176    
    0.5041281600109668E-01     2.350411633417916    
    0.5671441800123377E-01     2.348983977734645    
    0.6301602000137085E-01     2.347388864974159    
    0.6931762200150793E-01     2.345626464562306    
    0.7561922400164502E-01     2.343696964851794    
    0.8192082600178210E-01     2.341600573432459    
    0.8822242800191918E-01     2.339337517469938    
    0.9452403000205627E-01     2.336908044070884    
    0.1008256320021934         2.334312420673133    
    0.1071272340023304         2.331550935459488    
    0.1134288360024675         2.328623897793766    
    0.1197304380026046         2.325531638677814    
    0.1260320400027417         2.322274511228078    
    0.1323336420028788         2.318852891170361    
    0.1386352440030159         2.315267177351290    
    0.1449368460031530         2.311517792265007    
    0.1512384480032900         2.307605182593556    
    0.1575400500034271         2.303529819759341    
    0.1638416520035642         2.299292200488064    
    0.1701432540037013         2.294892847380468    
    0.1764448560038384         2.290332309491175    
    0.1827464580039755         2.285611162912915    
    0.1890480600041125         2.280730011364365    
    0.1953496620042496         2.275689486779869    
    0.2016512640043867         2.270490249899190    
    0.2079528660045238         2.265132990855536    
    0.2142544680046609         2.259618429760021    
    0.2205560700047980         2.253947317280757    
    0.2268576720049351         2.248120435214741    
    0.2331592740050721         2.242138597050742    
    0.2394608760052092         2.236002648521358    
    0.2457624780053463         2.229713468142449    
    0.2520640800054834         2.223271967738194    
    0.2583656820056205         2.216679092949967    
    0.2646672840057576         2.209935823727342    
    0.2709688860058946         2.203043174799464    
    0.2772704880060317         2.196002196125174    
    0.2835720900061688         2.188813973320196    
    0.2898736920063059         2.181479628059802    
    0.2961752940064430         2.174000318455418    
    0.3024768960065801         2.166377239403625    
    0.3087784980067171         2.158611622906118    
    0.3150801000068542         2.150704738359214    
    0.3213817020069913         2.142657892811554    
    0.3276833040071284         2.134472431188704    
    0.3339849060072655         2.126149736483441    
    0.3402865080074026         2.117691229910556    
    0.3465881100075396         2.109098371025062    
    0.3528897120076767         2.100372657802808    
    0.3591913140078138         2.091515626682543    
    0.3654929160079509         2.082528852568527    
    0.3717945180080880         2.073413948792922    
    0.3780961200082251         2.064172567037220    
    0.3843977220083621         2.054806397212071    
    0.3906993240084993         2.045317167294947    
    0.3970009260086363         2.035706643125150    
    0.4033025280087734         2.025976628155808    
    0.4096041300089105         2.016128963162480    
    0.4159057320090476         2.006165525908211    
    0.4222073340091847         1.996088230764838    
    0.4285089360093218         1.985899028290519    
    0.4348105380094588         1.975599904763493    
    0.4411121400095959         1.965192881672206    
    0.4474137420097330         1.954680015161955    
    0.4537153440098701         1.944063395438383    
    0.4600169460100072         1.933345146128141    
    0.4663185480101443         1.922527423597170    
    0.4726201500102813         1.911612416227159    
    0.4789217520104184         1.900602343650738    
    0.4852233540105555         1.889499455946112    
    0.4915249560106926         1.878306032791889    
    0.4978265580108297         1.867024382582943    
    0.5041281600109668         1.855656841508203    
    0.5104297620111039         1.844205772591355    
    0.5167313640112410         1.832673565193799    
    0.5230329660113781         1.821062632952624    
    0.5293345680115151         1.809375412798756    
    0.5356361700116522         1.797614364798612    
    0.5419377720117893         1.785781970539272    
    0.5482393740119264         1.773880731970763    
    0.5545409760120634         1.761913170219877    
    0.5608425780122005         1.749881824376919    
    0.5671441800123376         1.737789250256932    
    0.5734457820124748         1.725638019136887    
    0.5797473840126118         1.713430716470453    
    0.5860489860127489         1.701169940581936    
    0.5923505880128860         1.688858301341027    
    0.5986521900130231         1.676498418820056    
    0.6049537920131601         1.664092921935436    
    0.6112553940132972         1.651644447075007    
    0.6175569960134343         1.639155636713047    
    0.6238585980135714         1.626629138014677    
    0.6301602000137084         1.614067601431444    
    0.6364618020138455         1.601473679289845    
    0.6427634040139827         1.588850024374573    
    0.6490650060141198         1.576199288508271    
    0.6553666080142568         1.563524121129553    
    0.6616682100143939         1.550827167871073    
    0.6679698120145310         1.538111069139408    
    0.6742714140146681         1.525378458698484    
    0.6805730160148051         1.512631962258294    
    0.6868746180149422         1.499874196070610    
    0.6931762200150793         1.487107765533373    
    0.6994778220152164         1.474335263805445    
    0.7057794240153534         1.461559270433330    
    0.7120810260154906         1.448782349991490    
    0.7183826280156277         1.436007050737816    
    0.7246842300157648         1.423235903285786    
    0.7309858320159018         1.410471419294800    
    0.7372874340160389         1.397716090180159    
    0.7435890360161760         1.384972385844071    
    0.7498906380163131         1.372242753429066    
    0.7561922400164501         1.359529616095116    
    0.7624938420165872         1.346835371821735    
    0.7687954440167243         1.334162392236256    
    0.7750970460168615         1.321513021469452    
    0.7813986480169985         1.308889575039596    
    0.7877002500171356         1.296294338765996    
    0.7940018520172727         1.283729567713010    
    0.8003034540174098         1.271197485165440    
    0.8066050560175468         1.258700281636200    
    0.8129066580176839         1.246240113907036    
    0.8192082600178210         1.233819104103069    
    0.8255098620179581         1.221439338801809    
    0.8318114640180951         1.209102868177298    
    0.8381130660182322         1.196811705179895    
    0.8444146680183694         1.184567824752238    
    0.8507162700185065         1.172373163081784    
    0.8570178720186435         1.160229616890303    
    0.8633194740187806         1.148139042760635    
    0.8696210760189177         1.136103256500950    
    0.8759226780190548         1.124124032546695    
    0.8822242800191918         1.112203103400342    
    0.8885258820193289         1.100342159109015    
    0.8948274840194660         1.088542846779973    
    0.9011290860196031         1.076806770133924    
    0.9074306880197403         1.065135489096030    
    0.9137322900198773         1.053530519424460    
    0.9200338920200144         1.041993332376251    
    0.9263354940201515         1.030525354410212    
    0.9326370960202885         1.019127966926556    
    0.9389386980204256         1.007802506042859    
    0.9452403000205627        0.9965502624059585    
    0.9515419020206998        0.9853724810393003    
    0.9578435040208368        0.9742703612252377    
    0.9641451060209739        0.9632450564217147    
    0.9704467080211110        0.9522976742127678    
    0.9767483100212482        0.9414292762921841    
    0.9830499120213853        0.9306408784796804    
    0.9893515140215223        0.9199334507688871    
    0.9956531160216594        0.9093079174064085    
     1.001954718021796        0.8987651570012151    
     1.008256320021934        0.8883060026635660    
     1.014557922022071        0.8779312421726604    
     1.020859524022208        0.8676416181721869    
     1.027161126022345        0.8574378283929236    
     1.033462728022482        0.8473205259015050    
     1.039764330022619        0.8372903193744979    
     1.046065932022756        0.8273477733968624    
     1.052367534022893        0.8174934087839171    
     1.058669136023030        0.8077277029258703    
     1.064970738023167        0.7980510901540209    
     1.071272340023304        0.7884639621276760    
     1.077573942023442        0.7789666682408923    
     1.083875544023579        0.7695595160480845    
     1.090177146023716        0.7602427717075968    
     1.096478748023853        0.7510166604423184    
     1.102780350023990        0.7418813670164219    
     1.109081952024127        0.7328370362273297    
     1.115383554024264        0.7238837734120103    
     1.121685156024401        0.7150216449667358    
     1.127986758024538        0.7062506788794136    
     1.134288360024675        0.6975708652736667    
     1.140589962024812        0.6889821569638078    
     1.146891564024950        0.6804844700199022    
     1.153193166025086        0.6720776843421254    
     1.159494768025224        0.6637616442436414    
     1.165796370025361        0.6555361590412415    
     1.172097972025498        0.6474010036530352    
     1.178399574025635        0.6393559192024739    
     1.184701176025772        0.6314006136280336    
     1.191002778025909        0.6235347622979227    
     1.197304380026046        0.6157580086291692    
     1.203605982026183        0.6080699647106577    
     1.209907584026320        0.6004702115809603    
     1.216209186026457        0.5929582990118369    
     1.222510788026594        0.5855337479684846    
     1.228812390026732        0.5781960507272416    
     1.235113992026869        0.5709446714389265    
     1.241415594027006        0.5637790467617851    
     1.247717196027143        0.5566985864949413    
     1.254018798027280        0.5497026742119926    
     1.260320400027417        0.5427906678944379    
     1.266622002027554        0.5359619005645455    
     1.272923604027691        0.5292156808747677    
     1.279225206027828        0.5225512937223101    
     1.285526808027965        0.5159680011771137    
     1.291828410028102        0.5094650433924519    
     1.298130012028240        0.5030416381586041    
     1.304431614028376        0.4966969803694381    
     1.310733216028514        0.4904302439239343    
     1.317034818028651        0.4842405871530306    
     1.323336420028788        0.4781271592665539    
     1.329638022028925        0.4720891071304679    
     1.335939624029062        0.4661255813870367    
     1.342241226029199        0.4602357398794768    
     1.348542828029336        0.4544187472276724    
     1.354844430029473        0.4486737733462020    
     1.361146032029610        0.4429999933020181    
     1.367447634029747        0.4373965878452057    
     1.373749236029884        0.4318627437802031    
     1.380050838030022        0.4263976539968035    
     1.386352440030159        0.4210005175591153    
     1.392654042030296        0.4156705398071016    
     1.398955644030433        0.4104069324518521    
     1.405257246030570        0.4052089136610088    
     1.411558848030707        0.4000757081360846    
     1.417860450030844        0.3950065471820957    
     1.424162052030981        0.3900006687698889    
     1.430463654031118        0.3850573175915156    
     1.436765256031255        0.3801757451089944    
     1.443066858031392        0.3753552095967833    
     1.449368460031530        0.3705949761782896    
     1.455670062031666        0.3658943168566914    
     1.461971664031804        0.3612525105403809    
     1.468273266031941        0.3566688430632886    
     1.474574868032078        0.3521426072003517    
     1.480876470032215        0.3476731026783832    
     1.487178072032352        0.3432596361825750    
     1.493479674032489        0.3389015213588615    
     1.499781276032626        0.3345980788123782    
     1.506082878032763        0.3303486361021988    
     1.512384480032900        0.3261525277325790    
     1.518686082033037        0.3220090951408754    
     1.524987684033174        0.3179176866823377    
     1.531289286033312        0.3138776576119411    
     1.537590888033449        0.3098883700634290    
     1.543892490033586        0.3059491930257263    
     1.550194092033723        0.3020595023168724    
     1.556495694033860        0.2982186805556279    
     1.562797296033997        0.2944261171308799    
     1.569098898034134        0.2906812081689988    
     1.575400500034271        0.2869833564992530    
     1.581702102034408        0.2833319716174217    
     1.588003704034545        0.2797264696477048    
     1.594305306034682        0.2761662733030568    
     1.600606908034820        0.2726508118440348    
     1.606908510034956        0.2691795210362760    
     1.613210112035094        0.2657518431066871    
     1.619511714035231        0.2623672266984514    
     1.625813316035368        0.2590251268249280    
     1.632114918035505        0.2557250048225340    
     1.638416520035642        0.2524663283026929    
     1.644718122035779        0.2492485711029106    
     1.651019724035916        0.2460712132370722    
     1.657321326036053        0.2429337408450060    
     1.663622928036190        0.2398356461414006    
     1.669924530036327        0.2367764273641217    
     1.676226132036464        0.2337555887220016    
     1.682527734036602        0.2307726403421442    
     1.688829336036739        0.2278270982168096    
     1.695130938036876        0.2249184841499303    
     1.701432540037013        0.2220463257032976    
     1.707734142037150        0.2192101561424784    
     1.714035744037287        0.2164095143824900    
     1.720337346037424        0.2136439449332866    
     1.726638948037561        0.2109129978451042    
     1.732940550037698        0.2082162286536818    
     1.739242152037835        0.2055531983253983    
     1.745543754037972        0.2029234732023726    
     1.751845356038110        0.2003266249475456    
     1.758146958038247        0.1977622304897952    
     1.764448560038384        0.1952298719690864    
     1.770750162038521        0.1927291366816962    
     1.777051764038658        0.1902596170255412    
     1.783353366038795        0.1878209104456285    
     1.789654968038932        0.1854126193796544    
     1.795956570039069        0.1830343512037717    
     1.802258172039206        0.1806857181785511    
     1.808559774039343        0.1783663373951435    
     1.814861376039481        0.1760758307216771    
     1.821162978039617        0.1738138247498960    
     1.827464580039755        0.1715799507420576    
     1.833766182039892        0.1693738445781071    
     1.840067784040029        0.1671951467031419    
     1.846369386040166        0.1650435020751780    
     1.852670988040303        0.1629185601132291    
     1.858972590040440        0.1608199746457160    
     1.865274192040577        0.1587474038592109    
     1.871575794040714        0.1567005102475291    
     1.877877396040851        0.1546789605611770    
     1.884178998040988        0.1526824257571645    
     1.890480600041125        0.1507105809491932    
     1.896782202041263        0.1487631053582196    
     1.903083804041400        0.1468396822634081    
     1.909385406041537        0.1449399989534773    
     1.915687008041674        0.1430637466784455    
     1.921988610041811        0.1412106206017739    
     1.928290212041948        0.1393803197529258    
     1.934591814042085        0.1375725469803322    
     1.940893416042222        0.1357870089047767    
     1.947195018042359        0.1340234158731979    
     1.953496620042496        0.1322814819129126    
     1.959798222042633        0.1305609246862665    
     1.966099824042771        0.1288614654457081    
     1.972401426042907        0.1271828289892937    
     1.978703028043045        0.1255247436166201    
     1.985004630043182        0.1238869410851881    
     1.991306232043319        0.1222691565671986    
     1.997607834043456        0.1206711286067804    
     2.003909436043593        0.1190925990776498    
     2.010211038043730        0.1175333131412040    
     2.016512640043867        0.1159930192050439    
     2.022814242044004        0.1144714688819322    
     2.029115844044141        0.1129684169491794    
     2.035417446044278        0.1114836213084609    
     2.041719048044416        0.1100168429460659    
     2.048020650044553        0.1085678458935689    
     2.054322252044690        0.1071363971889318    
     2.060623854044827        0.1057222668380298    
     2.066925456044964        0.1043252277765990    
     2.073227058045101        0.1029450558326085    
     2.079528660045238        0.1015815296890474    
     2.085830262045375        0.1002344308471328    
     2.092131864045512        0.9890354358993131E-01
     2.098433466045649        0.9758865494639185E-01
     2.104735068045786        0.9628955465579037E-01
     2.111036670045924        0.9500603513258127E-01
     2.117338272046061        0.9373789143165433E-01
     2.123639874046197        0.9248492121399228E-01
     2.129941476046334        0.9124692471272969E-01
     2.136243078046472        0.9002370469960648E-01
     2.142544680046609        0.8881506645181729E-01
     2.148846282046746        0.8762081771924811E-01
     2.155147884046883        0.8644076869210304E-01
     2.161449486047020        0.8527473196891516E-01
     2.167751088047157        0.8412252252493622E-01
     2.174052690047294        0.8298395768090731E-01
     2.180354292047431        0.8185885707220224E-01
     2.186655894047568        0.8074704261834335E-01
     2.192957496047705        0.7964833849288433E-01
     2.199259098047842        0.7856257109365863E-01
     2.205560700047980        0.7748956901338998E-01
     2.211862302048117        0.7642916301065844E-01
     2.218163904048254        0.7538118598122311E-01
     2.224465506048391        0.7434547292969593E-01
     2.230767108048528        0.7332186094156194E-01
     2.237068710048665        0.7231018915554445E-01
     2.243370312048802        0.7131029873631127E-01
     2.249671914048939        0.7032203284751751E-01
     2.255973516049076        0.6934523662518320E-01
     2.262275118049213        0.6837975715139992E-01
     2.268576720049350        0.6742544342836571E-01
     2.274878322049488        0.6648214635274208E-01
     2.281179924049625        0.6554971869033246E-01
     2.287481526049762        0.6462801505107510E-01
     2.293783128049899        0.6371689186435120E-01
     2.300084730050036        0.6281620735460086E-01
     2.306386332050173        0.6192582151724584E-01
     2.312687934050310        0.6104559609491556E-01
     2.318989536050447        0.6017539455397077E-01
     2.325291138050584        0.5931508206132522E-01
     2.331592740050721        0.5846452546155834E-01
     2.337894342050858        0.5762359325431696E-01
     2.344195944050996        0.5679215557200382E-01
     2.350497546051133        0.5597008415774823E-01
     2.356799148051270        0.5515725234365489E-01
     2.363100750051407        0.5435353502932962E-01
     2.369402352051544        0.5355880866067779E-01
     2.375703954051681        0.5277295120897026E-01
     2.382005556051818        0.5199584215017786E-01
     2.388307158051955        0.5122736244456715E-01
     2.394608760052092        0.5046739451655603E-01
     2.400910362052229        0.4971582223482595E-01
     2.407211964052366        0.4897253089268819E-01
     2.413513566052504        0.4823740718869885E-01
     2.419815168052641        0.4751033920752275E-01
     2.426116770052777        0.4679121640104003E-01
     2.432418372052915        0.4607992956969424E-01
     2.438719974053052        0.4537637084407915E-01
     2.445021576053189        0.4468043366675941E-01
     2.451323178053326        0.4399201277432405E-01
     2.457624780053463        0.4331100417966904E-01
     2.463926382053600        0.4263730515450588E-01
     2.470227984053737        0.4197081421209371E-01
     2.476529586053874        0.4131143109019171E-01
     2.482831188054011        0.4065905673422941E-01
     2.489132790054148        0.4001359328069196E-01
     2.495434392054285        0.3937494404071677E-01
     2.501735994054423        0.3874301348390056E-01
     2.508037596054560        0.3811770722231221E-01
     2.514339198054697        0.3749893199470967E-01
     2.520640800054834        0.3688659565095882E-01
     2.526942402054971        0.3628060713664997E-01
     2.533244004055108        0.3568087647791072E-01
     2.539545606055245        0.3508731476641331E-01
     2.545847208055382        0.3449983414457070E-01
     2.552148810055519        0.3391834779092306E-01
     2.558450412055656        0.3334276990570931E-01
     2.564752014055793        0.3277301569662167E-01
     2.571053616055931        0.3220900136474179E-01
     2.577355218056068        0.3165064409065522E-01
     2.583656820056205        0.3109786202074180E-01
     2.589958422056342        0.3055057425364006E-01
     2.596260024056479        0.3000870082688262E-01
     2.602561626056616        0.2947216270370179E-01
     2.608863228056753        0.2894088176000048E-01
     2.615164830056890        0.2841478077148868E-01
     2.621466432057027        0.2789378340098250E-01
     2.627768034057164        0.2737781418586218E-01
     2.634069636057301        0.2686679852568927E-01
     2.640371238057439        0.2636066266997869E-01
     2.646672840057576        0.2585933370612543E-01
     2.652974442057713        0.2536273954748122E-01
     2.659276044057850        0.2487080892158239E-01
     2.665577646057987        0.2438347135852448E-01
     2.671879248058124        0.2390065717948145E-01
     2.678180850058261        0.2342229748536922E-01
     2.684482452058398        0.2294832414565082E-01
     2.690784054058535        0.2247866978727956E-01
     2.697085656058672        0.2201326778378124E-01
     2.703387258058809        0.2155205224447079E-01
     2.709688860058947        0.2109495800380323E-01
     2.715990462059084        0.2064192061085611E-01
     2.722292064059221        0.2019287631894194E-01
     2.728593666059357        0.1974776207534922E-01
     2.734895268059495        0.1930651551120891E-01
     2.741196870059632        0.1886907493148643E-01
     2.747498472059769        0.1843537930509555E-01
     2.753800074059906        0.1800536825513402E-01
     2.760101676060043        0.1757898204923821E-01
     2.766403278060180        0.1715616159005522E-01
     2.772704880060317        0.1673684840583201E-01
     2.779006482060455        0.1632098464111696E-01
     2.785308084060591        0.1590851304757629E-01
     2.791609686060728        0.1549937697491982E-01
     2.797911288060865        0.1509352036193728E-01
     2.804212890061003        0.1469088772764169E-01
     2.810514492061140        0.1429142416252041E-01
     2.816816094061277        0.1389507531988925E-01
     2.823117696061414        0.1350178740735150E-01
     2.829419298061551        0.1311150717835793E-01
     2.835720900061688        0.1272418192386746E-01
     2.842022502061825        0.1233975946410590E-01
     2.848324104061962        0.1195818814048098E-01
     2.854625706062099        0.1157941681864499E-01
     2.860927308062236        0.1120339517015158E-01
     2.867228910062373        0.1083007578662206E-01
     2.873530512062511        0.1045942077405219E-01
     2.879832114062648        0.1009141314537506E-01
     2.886133716062785        0.9726069877454896E-02
     2.892435318062922        0.9363452832678927E-02
     2.898736920063059        0.9003675330022899E-02
     2.905038522063196        0.8646903959886230E-02
     2.911340124063333        0.8293356346814853E-02
     2.917641726063470        0.7943295977734480E-02
     2.923943328063607        0.7597025205047764E-02
     2.930244930063744        0.7254877341547021E-02
     2.936546532063881        0.6917208527734040E-02
     2.942848134064019        0.6584389836900530E-02
     2.949149736064156        0.6256799911272802E-02
     2.955451338064293        0.5934818295055527E-02
     2.961752940064430        0.5618819540743892E-02
     2.968054542064567        0.5309168105086652E-02
     2.974356144064704        0.5006214012751517E-02
     2.980657746064841        0.4710289242694086E-02
     2.986959348064978        0.4421704779640748E-02
     2.993260950065115        0.4140748267454214E-02
     2.999562552065252        0.3867682199971863E-02
     3.005864154065389        0.3602742586462587E-02
     3.012165756065527        0.3346138031955882E-02
     3.018467358065664        0.3098049176555631E-02
     3.024768960065801        0.2858628441898659E-02
     3.031070562065938        0.2628000036781089E-02
     3.037372164066075        0.2406260177326984E-02
     3.043673766066212        0.2193477479648694E-02
     3.049975368066349        0.1989693484400915E-02
     3.056276970066486        0.1794923272507162E-02
     3.062578572066623        0.1609156128882130E-02
     3.068880174066760        0.1432356204938126E-02
     3.075181776066897        0.1264463118782041E-02
     3.081483378067035        0.1105392410120392E-02
     3.087784980067172        0.9550357268717661E-03
     3.094086582067308        0.8132605457786109E-03
     3.100388184067446        0.6799090838550415E-03
     3.106689786067583        0.5547957567156980E-03
     3.112991388067720        0.4377018654909988E-03
     3.119292990067857        0.3283645104513216E-03
     3.125594592067994        0.2264518535481753E-03
     3.131896194068131        0.1314997492855601E-03
     3.138197796068268        0.4268712050610164E-04
     3.144499398068405         0.000000000000000    
  0  2  2  0  0.000000   #orbital l, n, z, is_polarized, population
 500    0.3802744089017874E-02     1.897569300419919     # npts, delta, cutoff
     0.000000000000000         2.975518915992005    
    0.3802744089017874E-02     2.975424564933403    
    0.7605488178035748E-02     2.975287312578071    
    0.1140823226705362E-01     2.975058650123489    
    0.1521097635607150E-01     2.974738554450316    
    0.1901372044508937E-01     2.974327031677770    
    0.2281646453410725E-01     2.973824095795264    
    0.2661920862312512E-01     2.973229765619200    
    0.3042195271214299E-01     2.972544064042517    
    0.3422469680116087E-01     2.971767017795497    
    0.3802744089017874E-01     2.970898657361606    
    0.4183018497919661E-01     2.969939016951110    
    0.4563292906821449E-01     2.968888134500159    
    0.4943567315723237E-01     2.967746051682734    
    0.5323841724625024E-01     2.966512813930216    
    0.5704116133526811E-01     2.965188470455972    
    0.6084390542428599E-01     2.963773074283703    
    0.6464664951330386E-01     2.962266682278912    
    0.6844939360232173E-01     2.960669355183008    
    0.7225213769133960E-01     2.958981157649854    
    0.7605488178035748E-01     2.957202158284596    
    0.7985762586937535E-01     2.955332429684622    