<preamble>

<basis_specs>
===============================================================================
Po                   Z=  84    Mass=  208.98        Charge= 0.17977+309
Lmxo=2 Lmxkb= 2    BasisType=split      Semic=T
L=0  Nsemic=0  Cnfigmx=6
          i=1  nzeta=2  polorb=0  (6s)
            splnorm:   0.15000    
               vcte:    40.000    
               rinn:    4.6299    
               qcoe:    0.0000    
               qyuk:    0.0000    
               qwid:   0.10000E-01
                rcs:    5.1391      3.5681    
            lambdas:    1.0000      1.0000    
L=1  Nsemic=0  Cnfigmx=6
          i=1  nzeta=2  polorb=0  (6p)  (to be polarized non-perturbatively)
            splnorm:   0.15000    
               vcte:    40.000    
               rinn:    6.2653    
               qcoe:    0.0000    
               qyuk:    0.0000    
               qwid:   0.10000E-01
                rcs:    6.9545      4.9471    
            lambdas:    1.0000      1.0000    
L=2  Nsemic=1  Cnfigmx=6
          i=1  nzeta=1  polorb=0  (5d)  (semicore shell)
            splnorm:   0.15000    
               vcte:    40.000    
               rinn:    3.1005    
               qcoe:    0.0000    
               qyuk:    0.0000    
               qwid:   0.10000E-01
                rcs:    3.4416    
            lambdas:    1.0000    
          i=2  nzeta=1  polorb=0  (6d)  (non-perturbative polarization shell)
            splnorm:   0.15000    
               vcte:    40.000    
               rinn:    6.2653    
               qcoe:    0.0000    
               qyuk:    0.0000    
               qwid:   0.10000E-01
                rcs:    6.9545    
            lambdas:    1.0000    
-------------------------------------------------------------------------------
L=0  Nkbl=1  erefs: 0.17977+309
L=1  Nkbl=1  erefs: 0.17977+309
L=2  Nkbl=2  erefs: 0.17977+309 0.17977+309
===============================================================================
</basis_specs>

<pseudopotential_header>
 Po pw nrl pcec
 ONCVPSP-3.2018-03-09Hamann's oncvpsp                        
 6s 2.00  r= 2.43/6p 4.00  r= 2.21/5d10.00  r= 1.91/                    5d:6s:6p:
</pseudopotential_header>
</preamble>
Po                            # Symbol
Po                            # Label
   84                         # Atomic number
     16.0000000000                             # Valence charge
     208.980000000        # Mass 
     214.818145776        # Self energy 
   2   6                      # Lmax for basis, no. of nl orbitals 
   2   6                      # Lmax for projectors, no. of nl KB projectors
# PAOs:__________________________
  0  6  1  0  2.000000   #orbital l, n, z, is_polarized, population
 500    0.1029887882426159E-01     5.139140533306533     # npts, delta, cutoff
     0.000000000000000        0.2083286443135536    
    0.1029887882426159E-01    0.2083535360387863    
    0.2059775764852318E-01    0.2084448610672421    
    0.3089663647278477E-01    0.2085971033824103    
    0.4119551529704636E-01    0.2088103067256905    
    0.5149439412130795E-01    0.2090845331171831    
    0.6179327294556954E-01    0.2094198611253327    
    0.7209215176983114E-01    0.2098163846769081    
    0.8239103059409272E-01    0.2102742117383080    
    0.9268990941835431E-01    0.2107934627997174    
    0.1029887882426159        0.2113742691546903    
    0.1132876670668775        0.2120167709796911    
    0.1235865458911391        0.2127211152218734    
    0.1338854247154007        0.2134874533052004    
    0.1441843035396623        0.2143159386662239    
    0.1544831823639239        0.2152067241318443    
    0.1647820611881854        0.2161599591522257    
    0.1750809400124470        0.2171757869028259    
    0.1853798188367086        0.2182543412701889    
    0.1956786976609702        0.2193957437367700    
    0.2059775764852318        0.2206001001806092    
    0.2162764553094934        0.2218674976061305    
    0.2265753341337550        0.2231980008227409    
    0.2368742129580166        0.2245916490882043    
    0.2471730917822782        0.2260484527339994    
    0.2574719706065398        0.2275683897900155    
    0.2677708494308014        0.2291514026259988    
    0.2780697282550629        0.2307973946271510    
    0.2883686070793245        0.2325062269211694    
    0.2986674859035861        0.2342777151738460    
    0.3089663647278477        0.2361116264700633    
    0.3192652435521093        0.2380076762966909    
    0.3295641223763709        0.2399655256434582    
    0.3398630012006325        0.2419847782373757    
    0.3501618800248941        0.2440649779257103    
    0.3604607588491557        0.2462056062218683    
    0.3707596376734172        0.2484060800278318    
    0.3810585164976789        0.2506657495460120    
    0.3913573953219404        0.2529838963925489    
    0.4016562741462020        0.2553597319231893    
    0.4119551529704636        0.2577923957819244    
    0.4222540317947252        0.2602809546815784    
    0.4325529106189868        0.2628244014244937    
    0.4428517894432484        0.2654216541703844    
    0.4531506682675100        0.2680715559573159    
    0.4634495470917716        0.2707728744806310    
    0.4737484259160332        0.2735243021334831    
    0.4840473047402947        0.2763244563114459    
    0.4943461835645563        0.2791718799825013    
    0.5046450623888179        0.2820650425224837    
    0.5149439412130795        0.2850023408148837    
    0.5252428200373411        0.2879821006127099    
    0.5355416988616027        0.2910025781589298    
    0.5458405776858642        0.2940619620608535    
    0.5561394565101259        0.2971583754126676    
    0.5664383353343875        0.3002898781592275    
    0.5767372141586491        0.3034544696931186    
    0.5870360929829107        0.3066500916759696    
    0.5973349718071722        0.3098746310739778    
    0.6076338506314338        0.3131259233966710    
    0.6179327294556954        0.3164017561270133    
    0.6282316082799571        0.3196998723301196    
    0.6385304871042186        0.3230179744270559    
    0.6488293659284802        0.3263537281194706    
    0.6591282447527418        0.3297047664501572    
    0.6694271235770034        0.3330686939840395    
    0.6797260024012650        0.3364430910935746    
    0.6900248812255265        0.3398255183321092    
    0.7003237600497881        0.3432135208783731    
    0.7106226388740498        0.3466046330349884    
    0.7209215176983114        0.3499963827636871    
    0.7312203965225729        0.3533862962397727    
    0.7415192753468345        0.3567719024083447    
    0.7518181541710961        0.3601507375248045    
    0.7621170329953577        0.3635203496623023    
    0.7724159118196193        0.3668783031689551    
    0.7827147906438808        0.3702221830579480    
    0.7930136694681424        0.3735495993139752    
    0.8033125482924041        0.3768581910998962    
    0.8136114271166657        0.3801456308479833    
    0.8239103059409272        0.3834096282206966    
    0.8342091847651888        0.3866479339265602    
    0.8445080635894504        0.3898583433774074    
    0.8548069424137120        0.3930387001740281    
    0.8651058212379736        0.3961868994080534    
    0.8754047000622351        0.3993008907687995    
    0.8857035788864968        0.4023786814446958    
    0.8960024577107584        0.4054183388098932    
    0.9063013365350200        0.4084179928876448    
    0.9166002153592816        0.4113758385830921    
    0.9268990941835431        0.4142901376791592    
    0.9371979730078047        0.4171592205903404    
    0.9474968518320663        0.4199814878702840    
    0.9577957306563279        0.4227554114702027    
    0.9680946094805895        0.4254795357462655    
    0.9783934883048511        0.4281524782152752    
    0.9886923671291127        0.4307729300590596    
    0.9989912459533743        0.4333396563791415    
     1.009290124777636        0.4358514962043638    
     1.019589003601898        0.4383073622552395    
     1.029887882426159        0.4407062404698789    
     1.040186761250421        0.4430471892973808    
     1.050485640074682        0.4453293387655980    
     1.060784518898944        0.4475518893311534    
     1.071083397723205        0.4497141105205231    
     1.081382276547467        0.4518153393718726    
     1.091681155371728        0.4538549786881963    
     1.101980034195990        0.4558324951130497    
     1.112278913020252        0.4577474170409327    
     1.122577791844513        0.4595993323749981    
     1.132876670668775        0.4613878861453912    
     1.143175549493036        0.4631127780020306    
     1.153474428317298        0.4647737595961255    
     1.163773307141560        0.4663706318650817    
     1.174072185965821        0.4679032422358012    
     1.184371064790083        0.4693714817615984    
     1.194669943614344        0.4707752822081268    
     1.204968822438606        0.4721146131038095    
     1.215267701262868        0.4733894787702847    
     1.225566580087129        0.4745999153483063    
     1.235865458911391        0.4757459878344213    
     1.246164337735652        0.4768277871435272    
     1.256463216559914        0.4778454272121407    
     1.266762095384176        0.4787990421568534    
     1.277060974208437        0.4796887835020335    
     1.287359853032699        0.4805148174903485    
     1.297658731856960        0.4812773224891226    
     1.307957610681222        0.4819764865049528    
     1.318256489505484        0.4826125048183111    
     1.328555368329745        0.4831855777491624    
     1.338854247154007        0.4836959085638364    
     1.349153125978268        0.4841437015325780    
     1.359452004802530        0.4845291601463378    
     1.369750883626792        0.4848524855004570    
     1.380049762451053        0.4851138748519772    
     1.390348641275315        0.4853135203563225    
     1.400647520099576        0.4854516079881342    
     1.410946398923838        0.4855283166500176    
     1.421245277748100        0.4855438174719406    
     1.431544156572361        0.4854982733029955    
     1.441843035396623        0.4853918383962012    
     1.452141914220884        0.4852246582859807    
     1.462440793045146        0.4849968698569393    
     1.472739671869407        0.4847086016015247    
     1.483038550693669        0.4843599740631779    
     1.493337429517931        0.4839511004605869    
     1.503636308342192        0.4834820874877015    
     1.513935187166454        0.4829530362832569    
     1.524234065990715        0.4823640435626467    
     1.534532944814977        0.4817152029041539    
     1.544831823639239        0.4810066061807247    
     1.555130702463500        0.4802383451277265    
     1.565429581287762        0.4794105130366430    
     1.575728460112023        0.4785232056681084    
     1.586027338936285        0.4775765213209763    
     1.596326217760547        0.4765705667041748    
     1.606625096584808        0.4755054581345258    
     1.616923975409070        0.4743813235849055    
     1.627222854233331        0.4731983048786003    
     1.637521733057593        0.4719565599224173    
     1.647820611881854        0.4706562649647882    
     1.658119490706116        0.4692976168649527    
     1.668418369530378        0.4678808353593373    
     1.678717248354639        0.4664061658034418    
     1.689016127178901        0.4648738801399934    
     1.699315006003162        0.4632842798601385    
     1.709613884827424        0.4616376983267239    
     1.719912763651686        0.4599345025826651    
     1.730211642475947        0.4581750953113393    
     1.740510521300209        0.4563599167001439    
     1.750809400124470        0.4544894461951756    
     1.761108278948732        0.4525642041354815    
     1.771407157772994        0.4505847532559503    
     1.781706036597255        0.4485517000485239    
     1.792004915421517        0.4464656959721210    
     1.802303794245778        0.4443274385023825    
     1.812602673070040        0.4421376720131474    
     1.822901551894301        0.4398971884823717    
     1.833200430718563        0.4376068280160723    
     1.843499309542825        0.4352674791847537    
     1.853798188367086        0.4328800791677004    
     1.864097067191348        0.4304456137014445    
     1.874395946015609        0.4279651168296780    
     1.884694824839871        0.4254396704528505    
     1.894993703664133        0.4228704036766570    
     1.905292582488394        0.4202584919596142    
     1.915591461312656        0.4176051560609046    
     1.925890340136917        0.4149116607906123    
     1.936189218961179        0.4121793135654723    
     1.946488097785441        0.4094094627741976    
     1.956786976609702        0.4066034959573213    
     1.967085855433964        0.4037628378074731    
     1.977384734258225        0.4008889479968812    
     1.987683613082487        0.3979833188396683    
     1.997982491906749        0.3950474727973587    
     2.008281370731010        0.3920829598367939    
     2.018580249555272        0.3890913546503508    
     2.028879128379533        0.3860742537490458    
     2.039178007203795        0.3830332724397217    
     2.049476886028057        0.3799700416981040    
     2.059775764852318        0.3768862049500012    
     2.070074643676580        0.3737834147734158    
     2.080373522500841        0.3706633295346969    
     2.090672401325103        0.3675276099722221    
     2.100971280149365        0.3643779157413662    
     2.111270158973626        0.3612159019347028    
     2.121569037797888        0.3580432155915615    
     2.131867916622149        0.3548614922110969    
     2.142166795446411        0.3516723522830740    
     2.152465674270672        0.3484773978505009    
     2.162764553094934        0.3452782091180993    
     2.173063431919195        0.3420763411204740    
     2.183362310743457        0.3388733204635144    
     2.193661189567719        0.3356706421523165    
     2.203960068391980        0.3324697665185175    
     2.214258947216242        0.3292721162594643    
     2.224557826040503        0.3260790736012353    
     2.234856704864765        0.3228919775968965    
     2.245155583689027        0.3197121215708461    
     2.255454462513288        0.3165407507194433    
     2.265753341337550        0.3133790598773871    
     2.276052220161811        0.3102281914586814    
     2.286351098986073        0.3070892335801391    
     2.296649977810335        0.3039632183746436    
     2.306948856634596        0.3008511205005747    
     2.317247735458858        0.2977538558528608    
     2.327546614283119        0.2946722804803273    
     2.337845493107381        0.2916071897130788    
     2.348144371931643        0.2885593174899195    
     2.358443250755904        0.2855293357466657    
     2.368742129580166        0.2825178544245782    
     2.379041008404427        0.2795254219762121    
     2.389339887228689        0.2765525260205130    
     2.399638766052951        0.2735995915679347    
     2.409937644877212        0.2706669797020632    
     2.420236523701474        0.2677549892715486    
     2.430535402525735        0.2648638650375482    
     2.440834281349997        0.2619938077967121    
     2.451133160174258        0.2591449851637215    
     2.461432038998520        0.2563175417261649    
     2.471730917822782        0.2535116079758684    
     2.482029796647043        0.2507273046242080    
     2.492328675471305        0.2479647419938595    
     2.502627554295566        0.2452240179900374    
     2.512926433119828        0.2425052176718847    
     2.523225311944090        0.2398084143379131    
     2.533524190768351        0.2371336704429463    
     2.543823069592613        0.2344810380617473    
     2.554121948416874        0.2318505591576764    
     2.564420827241136        0.2292422659734390    
     2.574719706065398        0.2266561814128575    
     2.585018584889659        0.2240923194110137    
     2.595317463713921        0.2215506852923037    
     2.605616342538182        0.2190312761171513    
     2.615915221362444        0.2165340810176940    
     2.626214100186706        0.2140590815227665    
     2.636512979010967        0.2116062518724843    
     2.646811857835229        0.2091755593227323    
     2.657110736659490        0.2067669644398469    
     2.667409615483752        0.2043804213857774    
     2.677708494308014        0.2020158781940068    
     2.688007373132275        0.1996732770364937    
     2.698306251956537        0.1973525544819085    
     2.708605130780798        0.1950536417454114    
     2.718904009605060        0.1927764649302216    
     2.729202888429322        0.1905209452612270    
     2.739501767253583        0.1882869993108567    
     2.749800646077845        0.1860745392174601    
     2.760099524902106        0.1838834728964015    
     2.770398403726368        0.1817137042440974    
     2.780697282550630        0.1795651333352021    
     2.790996161374891        0.1774376566131441    
     2.801295040199153        0.1753311670742200    
     2.811593919023414        0.1732455544454308    
     2.821892797847676        0.1711807053562563    
     2.832191676671937        0.1691365035045455    
     2.842490555496199        0.1671128298167006    
     2.852789434320461        0.1651095626023334    
     2.863088313144722        0.1631265777035546    
     2.873387191968984        0.1611637486390627    
     2.883686070793245        0.1592209467431934    
     2.893984949617507        0.1572980413000769    
     2.904283828441768        0.1553948996730588    
     2.914582707266030        0.1535113874295303    
     2.924881586090291        0.1516473684613023    
     2.935180464914553        0.1498027051006666    
     2.945479343738815        0.1479772582322779    
     2.955778222563076        0.1461708874009814    
     2.966077101387338        0.1443834509157125    
     2.976375980211599        0.1426148059495985    
     2.986674859035861        0.1408648086363667    
     2.996973737860123        0.1391333141631877    
     3.007272616684384        0.1374201768600577    
     3.017571495508646        0.1357252502858294    
     3.027870374332907        0.1340483873109996    
     3.038169253157169        0.1323894401973517    
     3.048468131981431        0.1307482606745570    
     3.058767010805692        0.1291247000138262    
     3.069065889629954        0.1275186090987080    
     3.079364768454215        0.1259298384931245    
     3.089663647278477        0.1243582385067308    
     3.099962526102739        0.1228036592576874    
     3.110261404927000        0.1212659507329201    
     3.120560283751262        0.1197449628459600    
     3.130859162575523        0.1182405454924315    
     3.141158041399785        0.1167525486032684    
     3.151456920224047        0.1152808221957313    
     3.161755799048308        0.1138252164222964    
     3.172054677872570        0.1123855816174876    
     3.182353556696831        0.1109617683427145    
     3.192652435521093        0.1095536274291859    
     3.202951314345355        0.1081610100189593    
     3.213250193169616        0.1067837676041884    
     3.223549071993878        0.1054217520646277    
     3.233847950818139        0.1040748157034521    
     3.244146829642401        0.1027428112814472    
     3.254445708466663        0.1014255920496251    
     3.264744587290924        0.1001230117803163    
     3.275043466115186        0.9883492479679157E-01
     3.285342344939447        0.9756118600145940E-01
     3.295641223763709        0.9630165090269185E-01
     3.305940102587971        0.9505617564031939E-01
     3.316238981412232        0.9382461700984485E-01
     3.326537860236494        0.9260683248541716E-01
     3.336836739060755        0.9140268024160748E-01
     3.347135617885017        0.9021201917403135E-01
     3.357434496709279        0.8903470891885043E-01
     3.367733375533540        0.8787060987120057E-01
     3.378032254357802        0.8671958320257624E-01
     3.388331133182063        0.8558149087721198E-01
     3.398630012006325        0.8445619566749443E-01
     3.408928890830587        0.8334356116843787E-01
     3.419227769654848        0.8224345181125800E-01
     3.429526648479110        0.8115573287607544E-01
     3.439825527303371        0.8008027050377792E-01
     3.450124406127633        0.7901693170707400E-01
     3.460423284951895        0.7796558438076528E-01
     3.470722163776156        0.7692609731126601E-01
     3.481021042600418        0.7589834018539732E-01
     3.491319921424679        0.7488218359848076E-01
     3.501618800248941        0.7387749906175992E-01
     3.511917679073203        0.7288415900917268E-01
     3.522216557897464        0.7190203680349679E-01
     3.532515436721726        0.7093100674189534E-01
     3.542814315545987        0.6997094406088153E-01
     3.553113194370249        0.6902172494072667E-01
     3.563412073194510        0.6808322650933030E-01
     3.573710952018772        0.6715532684557515E-01
     3.584009830843033        0.6623790498218407E-01
     3.594308709667295        0.6533084090810090E-01
     3.604607588491556        0.6443401557041065E-01
     3.614906467315818        0.6354731087581997E-01
     3.625205346140080        0.6267060969171237E-01
     3.635504224964341        0.6180379584679704E-01
     3.645803103788603        0.6094675413136644E-01
     3.656101982612864        0.6009937029717875E-01
     3.666400861437126        0.5926153105697951E-01
     3.676699740261388        0.5843312408367896E-01
     3.686998619085649        0.5761403800919691E-01
     3.697297497909911        0.5680416242299045E-01
     3.707596376734172        0.5600338787027769E-01
     3.717895255558434        0.5521160584996983E-01
     3.728194134382696        0.5442870881232394E-01
     3.738493013206957        0.5365459015632881E-01
     3.748791892031219        0.5288914422683571E-01
     3.759090770855480        0.5213226631144465E-01
     3.769389649679742        0.5138385263715696E-01
     3.779688528504004        0.5064380036680553E-01
     3.789987407328265        0.4991200759527233E-01
     3.800286286152527        0.4918837334550216E-01
     3.810585164976788        0.4847279756432329E-01
     3.820884043801050        0.4776518111808483E-01
     3.831182922625312        0.4706542578811592E-01
     3.841481801449573        0.4637343426602099E-01
     3.851780680273835        0.4568911014881412E-01
     3.862079559098096        0.4501235793390214E-01
     3.872378437922358        0.4434308301392629E-01
     3.882677316746620        0.4368119167146689E-01
     3.892976195570881        0.4302659107361972E-01
     3.903275074395143        0.4237918926645228E-01
     3.913573953219404        0.4173889516934388E-01
     3.923872832043666        0.4110561856921566E-01
     3.934171710867928        0.4047927011465910E-01
     3.944470589692189        0.3985976130996655E-01
     3.954769468516451        0.3924700450907138E-01
     3.965068347340712        0.3864091290940454E-01
     3.975367226164974        0.3804140054567264E-01
     3.985666104989236        0.3744838228356451E-01
     3.995964983813497        0.3686177381338047E-01
     4.006263862637758        0.3628149164359500E-01
     4.016562741462020        0.3570745309436415E-01
     4.026861620286282        0.3513957629098251E-01
     4.037160499110543        0.3457778015727859E-01
     4.047459377934805        0.3402198440896608E-01
     4.057758256759066        0.3347210954695351E-01
     4.068057135583328        0.3292807685061398E-01
     4.078356014407590        0.3238980837101965E-01
     4.088654893231851        0.3185722692414211E-01
     4.098953772056113        0.3133025608402381E-01
     4.109252650880374        0.3080882017592461E-01
     4.119551529704636        0.3029284426944348E-01
     4.129850408528898        0.2978225417162356E-01
     4.140149287353159        0.2927697642003836E-01
     4.150448166177421        0.2877693827586509E-01
     4.160747045001682        0.2828206771694767E-01
     4.171045923825944        0.2779229343084812E-01
     4.181344802650206        0.2730754480789437E-01
     4.191643681474467        0.2682775193422334E-01
     4.201942560298729        0.2635284558482134E-01
     4.212241439122990        0.2588275721656650E-01
     4.222540317947252        0.2541741896127251E-01
     4.232839196771514        0.2495676361873754E-01
     4.243138075595775        0.2450072464979957E-01
     4.253436954420037        0.2404923616939917E-01
     4.263735833244298        0.2360223293965344E-01
     4.274034712068560        0.2315965036294017E-01
     4.284333590892822        0.2272142447499602E-01
     4.294632469717083        0.2228749193802966E-01
     4.304931348541345        0.2185779003384931E-01
     4.315230227365606        0.2143225665700983E-01
     4.325529106189868        0.2101083030797686E-01
     4.335827985014130        0.2059345008631193E-01
     4.346126863838391        0.2018005568387795E-01
     4.356425742662653        0.1977058737806725E-01
     4.366724621486914        0.1936498602505341E-01
     4.377023500311176        0.1896319305306585E-01
     4.387322379135438        0.1856515045569126E-01
     4.397621257959699        0.1817080078520039E-01
     4.407920136783961        0.1778008714590129E-01
     4.418219015608222        0.1739295318752133E-01
     4.428517894432484        0.1700934309861658E-01
     4.438816773256746        0.1662920160001125E-01
     4.449115652081007        0.1625247393826618E-01
     4.459414530905269        0.1587910587917804E-01
     4.469713409729530        0.1550904370131012E-01
     4.480012288553792        0.1514223418955314E-01
     4.490311167378054        0.1477862462871990E-01
     4.500610046202315        0.1441816279717084E-01
     4.510908925026577        0.1406079696047327E-01
     4.521207803850838        0.1370647586509379E-01
     4.531506682675100        0.1335514873212390E-01
     4.541805561499362        0.1300676525104055E-01
     4.552104440323623        0.1266127557349953E-01
     4.562403319147885        0.1231863030716449E-01
     4.572702197972146        0.1197878050957025E-01
     4.583001076796408        0.1164167768202092E-01
     4.593299955620670        0.1130727376352334E-01
     4.603598834444931        0.1097552112475560E-01
     4.613897713269193        0.1064637256207138E-01
     4.624196592093454        0.1031978129153918E-01
     4.634495470917716        0.9995700943017575E-02
     4.644794349741978        0.9674085554265636E-02
     4.655093228566239        0.9354889565090667E-02
     4.665392107390501        0.9038067813289870E-02
     4.675690986214762        0.8723575628831994E-02
     4.685989865039024        0.8411370043858913E-02
     4.696288743863286        0.8101415123654948E-02
     4.706587622687547        0.7793693603147788E-02
     4.716886501511809        0.7488222533328396E-02
     4.727185380336070        0.7185068041899729E-02
     4.737484259160332        0.6884355412647168E-02
     4.747783137984594        0.6586273098839635E-02
     4.758082016808855        0.6291071119861553E-02
     4.768380895633117        0.5999055154157712E-02
     4.778679774457378        0.5710577811449001E-02
     4.788978653281640        0.5426028387960591E-02
     4.799277532105902        0.5145822111593175E-02
     4.809576410930163        0.4870389588206326E-02
     4.819875289754425        0.4600166912593631E-02
     4.830174168578686        0.4335586718655776E-02
     4.840473047402948        0.4077070307252233E-02
     4.850771926227209        0.3825020896822048E-02
     4.861070805051471        0.3579817980494358E-02
     4.871369683875733        0.3341812735114804E-02
     4.881668562699994        0.3111324405398146E-02
     4.891967441524256        0.2888637575137986E-02
     4.902266320348517        0.2674000233346533E-02
     4.912565199172779        0.2467622543769009E-02
     4.922864077997041        0.2269676229626904E-02
     4.933162956821302        0.2080294490456619E-02
     4.943461835645564        0.1899572373707052E-02
     4.953760714469825        0.1727567529762437E-02
     4.964059593294087        0.1564301284882231E-02
     4.974358472118348        0.1409759971887524E-02
     4.984657350942610        0.1263896463016171E-02
     4.994956229766871        0.1126631852910291E-02
     5.005255108591133        0.9978572417851416E-03
     5.015553987415394        0.8774355687816490E-03
     5.025852866239656        0.7652034421866679E-03
     5.036151745063917        0.6609729044984464E-03
     5.046450623888179        0.5645330522070290E-03
     5.056749502712441        0.4756513945695024E-03
     5.067048381536702        0.3940747654663549E-03
     5.077347260360964        0.3195294586753420E-03
     5.087646139185225        0.2517199432952749E-03
     5.097945018009487        0.1903247675523476E-03
     5.108243896833748        0.1349862362997104E-03
     5.118542775658010        0.8528391275071452E-04
     5.128841654482272        0.4065400280320325E-04
     5.139140533306533         0.000000000000000    
  0  6  2  0  0.000000   #orbital l, n, z, is_polarized, population
 500    0.7150485805788629E-02     3.568092417088526     # npts, delta, cutoff
     0.000000000000000       -0.4114700467594529E-01
    0.7150485805788629E-02   -0.4112704816133720E-01
    0.1430097161157726E-01   -0.4103321285256410E-01
    0.2145145741736589E-01   -0.4087679565535039E-01
    0.2860194322315452E-01   -0.4065777897029847E-01
    0.3575242902894315E-01   -0.4037613359039910E-01
    0.4290291483473178E-01   -0.4003182153651780E-01
    0.5005340064052041E-01   -0.3962479668023147E-01
    0.5720388644630903E-01   -0.3915500513660113E-01
    0.6435437225209767E-01   -0.3862238564652743E-01