<preamble>

<basis_specs>
===============================================================================
Rb                   Z=  37    Mass=  85.468        Charge= 0.17977+309
Lmxo=1 Lmxkb= 2    BasisType=split      Semic=T
L=0  Nsemic=1  Cnfigmx=5
          i=1  nzeta=1  polorb=0  (4s)  (semicore shell)
            splnorm:   0.15000    
               vcte:    40.000    
               rinn:    3.5678    
               qcoe:    0.0000    
               qyuk:    0.0000    
               qwid:   0.10000E-01
                rcs:    3.9603    
            lambdas:    1.0000    
          i=2  nzeta=2  polorb=0  (5s)  (to be polarized non-perturbatively)
            splnorm:   0.15000    
               vcte:    40.000    
               rinn:    9.7625    
               qcoe:    0.0000    
               qyuk:    0.0000    
               qwid:   0.10000E-01
                rcs:    10.847      8.2121    
            lambdas:    1.0000      1.0000    
L=1  Nsemic=1  Cnfigmx=5
          i=1  nzeta=1  polorb=0  (4p)  (semicore shell)
            splnorm:   0.15000    
               vcte:    40.000    
               rinn:    4.3292    
               qcoe:    0.0000    
               qyuk:    0.0000    
               qwid:   0.10000E-01
                rcs:    4.8103    
            lambdas:    1.0000    
          i=2  nzeta=1  polorb=0  (5p)  (non-perturbative polarization shell)
            splnorm:   0.15000    
               vcte:    40.000    
               rinn:    9.7723    
               qcoe:    0.0000    
               qyuk:    0.0000    
               qwid:   0.10000E-01
                rcs:    10.847    
            lambdas:    1.0000    
-------------------------------------------------------------------------------
L=0  Nkbl=2  erefs: 0.17977+309 0.17977+309
L=1  Nkbl=2  erefs: 0.17977+309 0.17977+309
L=2  Nkbl=1  erefs: 0.17977+309
===============================================================================
</basis_specs>

<pseudopotential_header>
 Rb pw nrl pcec
 ONCVPSP-3.2018-03-09Hamann's oncvpsp                        
 4s 2.00  r= 1.71/4p 6.00  r= 1.75/4d 0.00  r= 1.95/                    4s:4p:5s:
</pseudopotential_header>
</preamble>
Rb                            # Symbol
Rb                            # Label
   37                         # Atomic number
     9.00000000000                             # Valence charge
     85.4680000000        # Mass 
     56.2722149843        # Self energy 
   1   5                      # Lmax for basis, no. of nl orbitals 
   2   6                      # Lmax for projectors, no. of nl KB projectors
# PAOs:__________________________
  0  4  1  0  2.000000   #orbital l, n, z, is_polarized, population
 500    0.7936378704872593E-02     3.960252973731424     # npts, delta, cutoff
     0.000000000000000        0.1007387078632473    
    0.7936378704872593E-02    0.1008687681944871    
    0.1587275740974519E-01    0.1012633624021952    
    0.2380913611461778E-01    0.1019206476842956    
    0.3174551481949037E-01    0.1028400646462861    
    0.3968189352436297E-01    0.1040208318535316    
    0.4761827222923556E-01    0.1054619466553841    
    0.5555465093410816E-01    0.1071621866003931    
    0.6349102963898075E-01    0.1091201111993721    
    0.7142740834385335E-01    0.1113340640035747    
    0.7936378704872593E-01    0.1138021749853588    
    0.8730016575359853E-01    0.1165223632115805    
    0.9523654445847113E-01    0.1194923397999892    
    0.1031729231633437        0.1227096111483376    
    0.1111093018682163        0.1261714824252146    
    0.1190456805730889        0.1298750613109280    
    0.1269820592779615        0.1338172619761274    
    0.1349184379828341        0.1379948092852717    
    0.1428548166877067        0.1424042432115612    
    0.1507911953925793        0.1470419234495230    
    0.1587275740974519        0.1519040342110999    
    0.1666639528023245        0.1569865891908375    
    0.1746003315071971        0.1622854366855897    
    0.1825367102120697        0.1677962648540751    
    0.1904730889169423        0.1735146071016053    
    0.1984094676218148        0.1794358475753909    
    0.2063458463266874        0.1855552267559827    
    0.2142822250315600        0.1918678471306462    
    0.2222186037364326        0.1983686789347778    
    0.2301549824413052        0.2050525659478572    
    0.2380913611461778        0.2119142313308869    
    0.2460277398510504        0.2189482834927772    
    0.2539641185559230        0.2261492219737197    
    0.2619004972607956        0.2335114433342195    
    0.2698368759656682        0.2410292470391228    
    0.2777732546705408        0.2486968413267088    
    0.2857096333754134        0.2565083490536531    
    0.2936460120802860        0.2644578135074567    
    0.3015823907851585        0.2725392041787315    
    0.3095187694900312        0.2807464224865535    
    0.3174551481949037        0.2890733074509098    
    0.3253915268997764        0.2975136413070956    
    0.3333279056046489        0.3060611550577282    
    0.3412642843095215        0.3147095339588492    
    0.3492006630143941        0.3234524229373751    
    0.3571370417192667        0.3322834319378982    
    0.3650734204241393        0.3411961411975867    
    0.3730097991290119        0.3501841064485959    
    0.3809461778338845        0.3592408640480619    
    0.3888825565387571        0.3683599360363434    
    0.3968189352436297        0.3775348351247055    
    0.4047553139485023        0.3867590696141469    
    0.4126916926533749        0.3960261482474767    
    0.4206280713582475        0.4053295849971258    
    0.4285644500631201        0.4146629037914655    
    0.4365008287679926        0.4240196431826425    
    0.4444372074728652        0.4333933609590985    
    0.4523735861777378        0.4427776387060337    
    0.4603099648826104        0.4521660863171102    
    0.4682463435874830        0.4615523464606325    
    0.4761827222923556        0.4709300990033509    
    0.4841191009972282        0.4802930653948400    
    0.4920554797021008        0.4896350130151873    
    0.4999918584069734        0.4989497594884195    
    0.5079282371118460        0.5082311769637488    
    0.5158646158167186        0.5174731963663149    
    0.5238009945215911        0.5266698116186526    
    0.5317373732264637        0.5358150838336176    
    0.5396737519313364        0.5449031454789809    
    0.5476101306362090        0.5539282045133311    
    0.5555465093410815        0.5628845484923483    
    0.5634828880459541        0.5717665486438940    
    0.5714192667508268        0.5805686639097524    
    0.5793556454556993        0.5892854449512227    
    0.5872920241605719        0.5979115381151483    
    0.5952284028654445        0.6064416893563132    
    0.6031647815703171        0.6148707481115763    
    0.6111011602751897        0.6231936711204712    
    0.6190375389800623        0.6314055261864719    
    0.6269739176849349        0.6395014958725543    
    0.6349102963898074        0.6474768811242154    
    0.6428466750946801        0.6553271048126323    
    0.6507830537995527        0.6630477151902352    
    0.6587194325044252        0.6706343892505960    
    0.6666558112092978        0.6780829359842827    
    0.6745921899141705        0.6853892995219851    
    0.6825285686190430        0.6925495621561459    
    0.6904649473239156        0.6995599472321300    
    0.6984013260287882        0.7064168218999491    
    0.7063377047336609        0.7131166997175927    
    0.7142740834385334        0.7196562430970661    
    0.7222104621434060        0.7260322655844372    
    0.7301468408482786        0.7322417339653977    
    0.7380832195531511        0.7382817701881695    
    0.7460195982580238        0.7441496530959385    
    0.7539559769628964        0.7498428199614462    
    0.7618923556677690        0.7553588678168758    
    0.7698287343726415        0.7606955545727232    
    0.7777651130775142        0.7658507999199803    
    0.7857014917823868        0.7708226860106232    
    0.7936378704872593        0.7756094579121315    
    0.8015742491921319        0.7802095238325348    
    0.8095106278970046        0.7846214551132960    
    0.8174470066018771        0.7888439859881879    
    0.8253833853067497        0.7928760131072021    
    0.8333197640116223        0.7967165948253826    
    0.8412561427164950        0.8003649502574819    
    0.8491925214213675        0.8038204581001342    
    0.8571289001262401        0.8070826552242957    
    0.8650652788311127        0.8101512350415064    
    0.8730016575359852        0.8130260456485315    
    0.8809380362408579        0.8157070877557633    
    0.8888744149457305        0.8181945124056959    
    0.8968107936506030        0.8204886184885649    
    0.9047471723554756        0.8225898500631054    
    0.9126835510603483        0.8244987934911044    
    0.9206199297652209        0.8262161743951594    
    0.9285563084700934        0.8277428544497155    
    0.9364926871749660        0.8290798280160544    
    0.9444290658798387        0.8302282186324742    
    0.9523654445847112        0.8311892753713422    
    0.9603018232895838        0.8319643690751652    
    0.9682382019944564        0.8325549884841149    
    0.9761745806993289        0.8329627362677503    
    0.9841109594042016        0.8331893249738508    
    0.9920473381090742        0.8332365729073992    
    0.9999837168139468        0.8331063999527885    
     1.007920095518819        0.8328008233522929    
     1.015856474223692        0.8323219534537299    
     1.023792852928564        0.8316719894400422    
     1.031729231633437        0.8308532150532817    
     1.039665610338310        0.8298679943251317    
     1.047601989043182        0.8287187673257023    
     1.055538367748055        0.8274080459418871    
     1.063474746452927        0.8259384096960015    
     1.071411125157800        0.8243125016148888    
     1.079347503862673        0.8225330241590015    
     1.087283882567545        0.8206027352203102    
     1.095220261272418        0.8185244441971469    
     1.103156639977291        0.8163010081533468    
     1.111093018682163        0.8139353280682518    
     1.119029397387036        0.8114303451833206    
     1.126965776091908        0.8087890374502729    
     1.134902154796781        0.8060144160860885    
     1.142838533501654        0.8031095227734538    
     1.150774912206526        0.8000774249577739    
     1.158711290911399        0.7969212139145977    
     1.166647669616271        0.7936440016604861    
     1.174584048321144        0.7902489179123147    
     1.182520427026016        0.7867391073131899    
     1.190456805730889        0.7831177267692739    
     1.198393184435762        0.7793879428952109    
     1.206329563140634        0.7755529295651566    
     1.214265941845507        0.7716158655658242    
     1.222202320550379        0.7675799323473665    
     1.230138699255252        0.7634483118674166    
     1.238075077960125        0.7592241845231518    
     1.246011456664997        0.7549107271658475    
     1.253947835369870        0.7505111111920659    
     1.261884214074742        0.7460285007053576    
     1.269820592779615        0.7414660507421473    
     1.277756971484488        0.7368269055553684    
     1.285693350189360        0.7321141969493159    
     1.293629728894233        0.7273310426592239    
     1.301566107599105        0.7224805447691217    
     1.309502486303978        0.7175657881616682    
     1.317438865008850        0.7125898389938601    
     1.325375243713723        0.7075557431927686    
     1.333311622418596        0.7024665249657740    
     1.341248001123468        0.6973251853201369    
     1.349184379828341        0.6921347005871680    
     1.357120758533213        0.6868980209467178    
     1.365057137238086        0.6816180689482205    
     1.372993515942959        0.6762977380250667    
     1.380929894647831        0.6709398909996553    
     1.388866273352704        0.6655473585770755    
     1.396802652057576        0.6601229378259885    
     1.404739030762449        0.6546693906459218    
     1.412675409467322        0.6491894422208219    
     1.420611788172194        0.6436857794593739    
     1.428548166877067        0.6381610494232260    
     1.436484545581939        0.6326178577459443    
     1.444420924286812        0.6270587658719230    
     1.452357302991685        0.6214862898573001    
     1.460293681696557        0.6159029005859447    
     1.468230060401430        0.6103110211765289    
     1.476166439106302        0.6047130253966534    
     1.484102817811175        0.5991112360888676    
     1.492039196516048        0.5935079236148447    
     1.499975575220920        0.5879053043236466    
     1.507911953925793        0.5823055390503556    
     1.515848332630665        0.5767107316516292    
     1.523784711335538        0.5711229275849409    
     1.531721090040411        0.5655441125384729    
     1.539657468745283        0.5599762111186926    
     1.547593847450156        0.5544210856027130    
     1.555530226155028        0.5488805347625324    
     1.563466604859901        0.5433562927681338    
     1.571402983564774        0.5378500281763400    
     1.579339362269646        0.5323633430120769    
     1.587275740974519        0.5268977719484758    
     1.595212119679391        0.5214547815919188    
     1.603148498384264        0.5160357698777727    
     1.611084877089136        0.5106420655821410    
     1.619021255794009        0.5052749279544982    
     1.626957634498882        0.4999355464755706    
     1.634894013203754        0.4946250407442680    
     1.642830391908627        0.4893444604969002    
     1.650766770613499        0.4840947857612793    
     1.658703149318372        0.4788769271218606    
     1.666639528023245        0.4736917260498021    
     1.674575906728117        0.4685399557680783    
     1.682512285432990        0.4634223224377081    
     1.690448664137862        0.4583394654095777    
     1.698385042842735        0.4532919563155325    
     1.706321421547608        0.4482802999222766    
     1.714257800252480        0.4433049398523285    
     1.722194178957353        0.4383662669931211    
     1.730130557662225        0.4334646287442869    
     1.738066936367098        0.4286003381788081    
     1.746003315071970        0.4237736818850894    
     1.753939693776843        0.4189849229657450    
     1.761876072481716        0.4142343005120428    
     1.769812451186588        0.4095220285691208    
     1.777748829891461        0.4048482972258545    
     1.785685208596334        0.4002132739601683    
     1.793621587301206        0.3956171047236609    
     1.801557966006079        0.3910599146432027    
     1.809494344710951        0.3865418088111294    
     1.817430723415824        0.3820628730680353    
     1.825367102120697        0.3776231747633994    
     1.833303480825569        0.3732227634908890    
     1.841239859530442        0.3688616718005360    
     1.849176238235314        0.3645399158884639    
     1.857112616940187        0.3602574962647520    
     1.865048995645060        0.3560143984000640    
     1.872985374349932        0.3518105933516185    
     1.880921753054805        0.3476460383690771    
     1.888858131759677        0.3435206774809294    
     1.896794510464550        0.3394344420619042    
     1.904730889169422        0.3353872513819595    
     1.912667267874295        0.3313790131373690    
     1.920603646579168        0.3274096239644155    
     1.928540025284040        0.3234789699361965    
     1.936476403988913        0.3195869270430181    
     1.944412782693785        0.3157333616568683    
     1.952349161398658        0.3119181309804120    
     1.960285540103531        0.3081410834809793    
     1.968221918808403        0.3044020593099699    
     1.976158297513276        0.3007008907081161    
     1.984094676218148        0.2970374023970104    
     1.992031054923021        0.2934114119573116    
     1.999967433627894        0.2898227301940225    
     2.007903812332766        0.2862711614892283    
     2.015840191037639        0.2827565041426628    
     2.023776569742511        0.2792785507004810    
     2.031712948447384        0.2758370882725777    
     2.039649327152257        0.2724318988388177    
     2.047585705857129        0.2690627595444920    
     2.055522084562002        0.2657294429853491    
     2.063458463266874        0.2624317174825053    
     2.071394841971747        0.2591693473475496    
     2.079331220676619        0.2559420931381458    
     2.087267599381492        0.2527497119044211    
     2.095203978086364        0.2495919574264312    
     2.103140356791237        0.2464685804429702    
     2.111076735496110        0.2433793288720092    
     2.119013114200982        0.2403239480230049    
     2.126949492905855        0.2373021808013539    
     2.134885871610728        0.2343137679052227    
     2.142822250315600        0.2313584480150031    
     2.150758629020473        0.2284359579756224    
     2.158695007725346        0.2255460329719340    
     2.166631386430218        0.2226884066974119    
     2.174567765135091        0.2198628115163588    
     2.182504143839963        0.2170689786198347    
     2.190440522544836        0.2143066381755147    
     2.198376901249708        0.2115755194716581    
     2.206313279954581        0.2088753510553911    
     2.214249658659454        0.2062058608654819    
     2.222186037364326        0.2035667763597834    
     2.230122416069199        0.2009578246375231    
     2.238058794774072        0.1983787325566067    
     2.245995173478944        0.1958292268460934    
     2.253931552183817        0.1933090342140078    
     2.261867930888689        0.1908178814506413    
     2.269804309593562        0.1883554955274849    
     2.277740688298434        0.1859216036919472    
     2.285677067003307        0.1835159335579930    
     2.293613445708179        0.1811382131928373    
     2.301549824413052        0.1787881711998277    
     2.309486203117925        0.1764655367976459    
     2.317422581822797        0.1741700398959491    
     2.325358960527670        0.1719014111675661    
     2.333295339232543        0.1696593821173797    
     2.341231717937415        0.1674436851479903    
     2.349168096642288        0.1652540536222833    
     2.357104475347160        0.1630902219229989    
     2.365040854052033        0.1609519255094109    
     2.372977232756905        0.1588389009712127    
     2.380913611461778        0.1567508860797044    
     2.388849990166650        0.1546876198363804    
     2.396786368871523        0.1526488425190017    
     2.404722747576396        0.1506342957252453    
     2.412659126281268        0.1486437224140133    
     2.420595504986141        0.1466768669444818    
     2.428531883691014        0.1447334751129763    
     2.436468262395886        0.1428132941877437    
     2.444404641100759        0.1409160729416984    
     2.452341019805631        0.1390415616832157    
     2.460277398510504        0.1371895122850414    
     2.468213777215376        0.1353596782113856    
     2.476150155920249        0.1335518145432673    
     2.484086534625122        0.1317656780021716    
     2.492022913329994        0.1300010269720831    
     2.499959292034867        0.1282576215199544    
     2.507895670739740        0.1265352234146668    
     2.515832049444612        0.1248335961445390    
     2.523768428149485        0.1231525049334401    
     2.531704806854358        0.1214917167555548    
     2.539641185559230        0.1198510003488569    
     2.547577564264103        0.1182301262273353    
     2.555513942968975        0.1166288666920223    
     2.563450321673848        0.1150469958408711    
     2.571386700378720        0.1134842895775220    
     2.579323079083593        0.1119405256190069    
     2.587259457788465        0.1104154835024287    
     2.595195836493338        0.1089089445906573    
     2.603132215198211        0.1074206920770819    
     2.611068593903083        0.1059505109894544    
     2.619004972607956        0.1044981881928646    
     2.626941351312829        0.1030635123918771    
     2.634877730017701        0.1016462741318690    
     2.642814108722574        0.1002462657995966    
     2.650750487427446        0.9886328162302672E-01
     2.658686866132319        0.9749711767045952E-01
     2.666623244837191        0.9614757184897724E-01
     2.674559623542064        0.9481444390224116E-01
     2.682496002246936        0.9349753540767103E-01
     2.690432380951809        0.9219664977302923E-01
     2.698368759656682        0.9091159223243737E-01
     2.706305138361554        0.8964216984184936E-01
     2.714241517066427        0.8838819147400596E-01
     2.722177895771300        0.8714946781289455E-01
     2.730114274476172        0.8592581134773378E-01
     2.738050653181045        0.8471703636650869E-01
     2.745987031885917        0.8352295894907409E-01
     2.753923410590790        0.8234339695985002E-01
     2.761859789295662        0.8117817004012275E-01
     2.769796168000535        0.8002709959997766E-01
     2.777732546705408        0.7889000880987754E-01
     2.785668925410280        0.7776672259190366E-01
     2.793605304115153        0.7665706761067984E-01
     2.801541682820026        0.7556087226399281E-01
     2.809478061524898        0.7447796667312624E-01
     2.817414440229771        0.7340818267292289E-01
     2.825350818934643        0.7235135380158968E-01
     2.833287197639516        0.7130731529026205E-01
     2.841223576344388        0.7027590405233591E-01
     2.849159955049261        0.6925695867258680E-01
     2.857096333754134        0.6825031939608525E-01
     2.865032712459006        0.6725582811691937E-01
     2.872969091163879        0.6627332836674085E-01
     2.880905469868751        0.6530266530314283E-01
     2.888841848573624        0.6434368569787857E-01
     2.896778227278497        0.6339623792493707E-01
     2.904714605983369        0.6246017194848150E-01
     2.912650984688242        0.6153533931065995E-01
     2.920587363393115        0.6062159311930131E-01
     2.928523742097987        0.5971878803550251E-01
     2.936460120802860        0.5882678026111603E-01
     2.944396499507732        0.5794542752614770E-01
     2.952332878212605        0.5707458907607165E-01
     2.960269256917477        0.5621412565906931E-01
     2.968205635622350        0.5536389951320238E-01
     2.976142014327222        0.5452377435352501E-01
     2.984078393032095        0.5369361535914172E-01
     2.992014771736968        0.5287328916021973E-01
     2.999951150441840        0.5206266382496058E-01
     3.007887529146713        0.5126160884653647E-01
     3.015823907851586        0.5046999512999901E-01
     3.023760286556458        0.4968769497916577E-01
     3.031696665261331        0.4891458208348665E-01
     3.039633043966203        0.4815053150490094E-01
     3.047569422671076        0.4739541966468582E-01
     3.055505801375948        0.4664912433030103E-01
     3.063442180080821        0.4591152460223693E-01
     3.071378558785694        0.4518250090086920E-01
     3.079314937490566        0.4446193495332174E-01
     3.087251316195439        0.4374970978034545E-01
     3.095187694900312        0.4304570968321619E-01
     3.103124073605184        0.4234982023065169E-01
     3.111060452310057        0.4166192824575601E-01
     3.118996831014929        0.4098192179299258E-01
     3.126933209719802        0.4030969016518731E-01
     3.134869588424674        0.3964512387056798E-01
     3.142805967129547        0.3898811461984086E-01
     3.150742345834419        0.3833855531330725E-01
     3.158678724539292        0.3769634002802372E-01
     3.166615103244165        0.3706136400500713E-01
     3.174551481949037        0.3643352363648788E-01
     3.182487860653910        0.3581271645321286E-01
     3.190424239358783        0.3519884111180090E-01
     3.198360618063655        0.3459179738215230E-01
     3.206296996768528        0.3399148613491359E-01
     3.214233375473400        0.3339780932900183E-01
     3.222169754178273        0.3281066999918648E-01
     3.230106132883146        0.3222997224373345E-01
     3.238042511588018        0.3165562121211275E-01
     3.245978890292891        0.3108752309276748E-01
     3.253915268997763        0.3052558510095058E-01
     3.261851647702636        0.2996971546662780E-01
     3.269788026407508        0.2941982342244732E-01
     3.277724405112381        0.2887581919177935E-01
     3.285660783817254        0.2833761397682515E-01
     3.293597162522126        0.2780511994679691E-01
     3.301533541226999        0.2727825022616943E-01
     3.309469919931872        0.2675691888300382E-01
     3.317406298636744        0.2624104091734555E-01
     3.325342677341617        0.2573053224969473E-01
     3.333279056046489        0.2522530970955223E-01
     3.341215434751362        0.2472529102404085E-01
     3.349151813456234        0.2423039480660088E-01
     3.357088192161107        0.2374054054576302E-01
     3.365024570865980        0.2325564859399683E-01
     3.372960949570852        0.2277564015663658E-01
     3.380897328275725        0.2230043728088331E-01
     3.388833706980598        0.2182996284488515E-01
     3.396770085685470        0.2136414054689499E-01
     3.404706464390343        0.2090289489450472E-01
     3.412642843095215        0.2044615119395913E-01
     3.420579221800088        0.1999383553954609E-01
     3.428515600504960        0.1954587480306561E-01
     3.436451979209833        0.1910219662337659E-01
     3.444388357914705        0.1866272939602115E-01
     3.452324736619578        0.1822740226292783E-01
     3.460261115324451        0.1779614510219108E-01
     3.468197494029323        0.1736888851793005E-01
     3.476133872734196        0.1694556383022375E-01
     3.484070251439069        0.1652610306512398E-01
     3.492006630143941        0.1611043894474553E-01
     3.499943008848814        0.1569850487743248E-01
     3.507879387553686        0.1529023494800266E-01
     3.515815766258559        0.1488556390806680E-01
     3.523752144963431        0.1448442716642498E-01
     3.531688523668304        0.1408676077953823E-01
     3.539624902373177        0.1369250144207556E-01
     3.547561281078049        0.1330158647753624E-01
     3.555497659782922        0.1291395382894599E-01
     3.563434038487794        0.1252954204962906E-01
     3.571370417192667        0.1214829029405171E-01
     3.579306795897540        0.1177013830874121E-01
     3.587243174602412        0.1139502642327691E-01
     3.595179553307285        0.1102289554299799E-01
     3.603115932012158        0.1065368723411076E-01
     3.611052310717030        0.1028734485923314E-01
     3.618988689421903        0.9923818603842099E-02
     3.626925068126775        0.9563076487827284E-02
     3.634861446831648        0.9205119249208988E-02
     3.642797825536520        0.8849994513411246E-02
     3.650734204241393        0.8497806662016319E-02
     3.658670582946266        0.8148721063363029E-02
     3.666606961651138        0.7802963048896400E-02
     3.674543340356011        0.7460812836762799E-02
     3.682479719060884        0.7122597771486376E-02
     3.690416097765756        0.6788683087186696E-02
     3.698352476470629        0.6459462128574261E-02
     3.706288855175501        0.6135346690436297E-02
     3.714225233880374        0.5816757907094934E-02
     3.722161612585246        0.5504117948325952E-02
     3.730097991290119        0.5197842652553189E-02
     3.738034369994991        0.4898335142074487E-02
     3.745970748699864        0.4605980408767915E-02
     3.753907127404737        0.4321140823773178E-02
     3.761843506109609        0.4044152504548453E-02
     3.769779884814482        0.3775322462621632E-02
     3.777716263519355        0.3514926451856087E-02
     3.785652642224227        0.3263207437700199E-02
     3.793589020929100        0.3020374611034628E-02
     3.801525399633972        0.2786602874731999E-02
     3.809461778338845        0.2562032736128590E-02
     3.817398157043717        0.2346770543758364E-02
     3.825334535748590        0.2140889011526765E-02
     3.833270914453462        0.1944427977716484E-02
     3.841207293158335        0.1757395349510915E-02
     3.849143671863208        0.1579768185746215E-02
     3.857080050568080        0.1411493870810509E-02
     3.865016429272953        0.1252491330144806E-02
     3.872952807977826        0.1102652231120492E-02
     3.880889186682698        0.9618420994135296E-03
     3.888825565387571        0.8299012550624331E-03
     3.896761944092443        0.7066454236405335E-03
     3.904698322797316        0.5918657840764998E-03
     3.912634701502189        0.4853280251725419E-03
     3.920571080207061        0.3867695735839895E-03
     3.928507458911934        0.2958931867711682E-03
     3.936443837616806        0.2123525029557154E-03
     3.944380216321679        0.1357167930484384E-03
     3.952316595026552        0.6536665607763666E-04
     3.960252973731424         0.000000000000000    
  0  5  1  0  1.000000   #orbital l, n, z, is_polarized, population
 500    0.2173790533438719E-01     10.84721476185921     # npts, delta, cutoff
     0.000000000000000        0.3368851273402452E-01
    0.2173790533438719E-01    0.3401214334809627E-01
    0.4347581066877437E-01    0.3498204586118731E-01
    0.6521371600316156E-01    0.3659024410261292E-01
    0.8695162133754875E-01    0.3882441687262878E-01
    0.1086895266719359        0.4166757729077507E-01
    0.1304274320063231        0.4509830933057549E-01
    0.1521653373407103        0.4909104396559209E-01
    0.1739032426750975        0.5361636448656595E-01
    0.1956411480094847        0.5864133330887105E-01