<preamble>

<basis_specs>
===============================================================================
Ru                   Z=  44    Mass=  101.07        Charge= 0.17977+309
Lmxo=2 Lmxkb= 2    BasisType=split      Semic=T
L=0  Nsemic=1  Cnfigmx=5
          i=1  nzeta=1  polorb=0  (4s)  (semicore shell)
            splnorm:   0.15000    
               vcte:    40.000    
               rinn:    2.5650    
               qcoe:    0.0000    
               qyuk:    0.0000    
               qwid:   0.10000E-01
                rcs:    2.8500    
            lambdas:    1.0000    
          i=2  nzeta=2  polorb=0  (5s)  (to be polarized non-perturbatively)
            splnorm:   0.15000    
               vcte:    40.000    
               rinn:    7.0582    
               qcoe:    0.0000    
               qyuk:    0.0000    
               qwid:   0.10000E-01
                rcs:    7.8425      5.6750    
            lambdas:    1.0000      1.0000    
L=1  Nsemic=1  Cnfigmx=5
          i=1  nzeta=1  polorb=0  (4p)  (semicore shell)
            splnorm:   0.15000    
               vcte:    40.000    
               rinn:    2.9253    
               qcoe:    0.0000    
               qyuk:    0.0000    
               qwid:   0.10000E-01
                rcs:    3.2471    
            lambdas:    1.0000    
          i=2  nzeta=1  polorb=0  (5p)  (non-perturbative polarization shell)
            splnorm:   0.15000    
               vcte:    40.000    
               rinn:    7.0653    
               qcoe:    0.0000    
               qyuk:    0.0000    
               qwid:   0.10000E-01
                rcs:    7.8425    
            lambdas:    1.0000    
L=2  Nsemic=0  Cnfigmx=4
          i=1  nzeta=2  polorb=0  (4d)
            splnorm:   0.15000    
               vcte:    40.000    
               rinn:    4.8921    
               qcoe:    0.0000    
               qyuk:    0.0000    
               qwid:   0.10000E-01
                rcs:    5.4357      3.5148    
            lambdas:    1.0000      1.0000    
-------------------------------------------------------------------------------
L=0  Nkbl=2  erefs: 0.17977+309 0.17977+309
L=1  Nkbl=2  erefs: 0.17977+309 0.17977+309
L=2  Nkbl=1  erefs: 0.17977+309
===============================================================================
</basis_specs>

<pseudopotential_header>
 Ru pw nrl pcec
 ONCVPSP-3.2018-03-09Hamann's oncvpsp                        
 4s 2.00  r= 1.36/4p 6.00  r= 1.41/4d 7.00  r= 1.31/                    4s:4p:4d:5s:
</pseudopotential_header>
</preamble>
Ru                            # Symbol
Ru                            # Label
   44                         # Atomic number
     16.0000000000                             # Valence charge
     101.070000000        # Mass 
     307.690743409        # Self energy 
   2   7                      # Lmax for basis, no. of nl orbitals 
   2   6                      # Lmax for projectors, no. of nl KB projectors
# PAOs:__________________________
  0  4  1  0  2.000000   #orbital l, n, z, is_polarized, population
 500    0.5711469781865973E-02     2.850023421151121     # npts, delta, cutoff
     0.000000000000000        0.2487797031180378    
    0.5711469781865973E-02    0.2489638113819869    
    0.1142293956373195E-01    0.2495358524855027    
    0.1713440934559792E-01    0.2504887987744741    
    0.2284587912746389E-01    0.2518219528304133    
    0.2855734890932986E-01    0.2535343425535654    
    0.3426881869119584E-01    0.2556247200273686    
    0.3998028847306181E-01    0.2580915622702633    
    0.4569175825492779E-01    0.2609330724221332    
    0.5140322803679376E-01    0.2641471812032367    
    0.5711469781865973E-01    0.2677315486123923    
    0.6282616760052570E-01    0.2716835658545318    
    0.6853763738239169E-01    0.2760003574934248    
    0.7424910716425766E-01    0.2806787838270584    
    0.7996057694612363E-01    0.2857154434836319    
    0.8567204672798960E-01    0.2911066762362369    
    0.9138351650985557E-01    0.2968485660342519    
    0.9709498629172154E-01    0.3029369442493673    
    0.1028064560735875        0.3093673931340298    
    0.1085179258554535        0.3161352494899288    
    0.1142293956373195        0.3232356085440082    
    0.1199408654191854        0.3306633280292965    
    0.1256523352010514        0.3384130324676828    
    0.1313638049829174        0.3464791176515897    
    0.1370752747647834        0.3548557553212984    
    0.1427867445466493        0.3635368980345113    
    0.1484982143285153        0.3725162842245263    
    0.1542096841103813        0.3817874434432090    
    0.1599211538922473        0.3913437017847618    
    0.1656326236741132        0.4011781874860669    
    0.1713440934559792        0.4112838366991906    
    0.1770555632378452        0.4216533994314337    
    0.1827670330197111        0.4322794456480800    
    0.1884785028015771        0.4431543715328242    
    0.1941899725834431        0.4542704059006188    
    0.1999014423653091        0.4656196167574876    
    0.2056129121471750        0.4771939180016394    
    0.2113243819290410        0.4889850762600059    
    0.2170358517109070        0.5009847178541246    
    0.2227473214927730        0.5131843358890812    
    0.2284587912746389        0.5255752974590316    
    0.2341702610565049        0.5381488509626080    
    0.2398817308383709        0.5508961335213427    
    0.2455932006202368        0.5638081784940316    
    0.2513046704021028        0.5768759230798064    
    0.2570161401839688        0.5900902160024543    
    0.2627276099658348        0.6034418252684264    
    0.2684390797477008        0.6169214459907391    
    0.2741505495295667        0.6305197082708718    
    0.2798620193114327        0.6442271851305925    
    0.2855734890932987        0.6580344004855088    
    0.2912849588751646        0.6719318371520172    
    0.2969964286570306        0.6859099448792199    
    0.3027078984388966        0.6999591483972385    
    0.3084193682207625        0.7140698554733170    
    0.3141308380026285        0.7282324649669640    
    0.3198423077844945        0.7424373748753742    
    0.3255537775663605        0.7566749903602648    
    0.3312652473482264        0.7709357317472724    
    0.3369767171300924        0.7852100424889897    
    0.3426881869119584        0.7994883970827338    
    0.3483996566938244        0.8137613089341449    
    0.3541111264756903        0.8280193381577166    
    0.3598225962575563        0.8422530993054202    
    0.3655340660394223        0.8564532690146146    
    0.3712455358212883        0.8706105935665253    
    0.3769570056031543        0.8847158963466422    
    0.3826684753850202        0.8987600851985021    
    0.3883799451668862        0.9127341596624260    
    0.3940914149487522        0.9266292180909382    
    0.3998028847306181        0.9404364646327208    
    0.4055143545124841        0.9541472160771447    
    0.4112258242943501        0.9677529085515810    
    0.4169372940762160        0.9812451040639407    
    0.4226487638580820        0.9946154968830233    
    0.4283602336399480         1.007855919749589    
    0.4340717034218139         1.020958349911232    
    0.4397831732036799         1.033914914974416    
    0.4454946429855459         1.046717898567348    
    0.4512061127674119         1.059359745807566    
    0.4569175825492778         1.071833068568515    
    0.4626290523311438         1.084130650539612    
    0.4683405221130098         1.096245452074682    
    0.4740519918948758         1.108170614823948    
    0.4797634616767418         1.119899466145112    
    0.4854749314586077         1.131425523289415    
    0.4911864012404737         1.142742497358930    
    0.4968978710223397         1.153844297031687    
    0.5026093408042056         1.164725032051651    
    0.5083208105860716         1.175379016480882    
    0.5140322803679376         1.185800771711667    
    0.5197437501498036         1.195985029236743    
    0.5254552199316695         1.205926733176155    
    0.5311666897135355         1.215621042559656    
    0.5368781594954015         1.225063333363998    
    0.5425896292772675         1.234249200304777    
    0.5483010990591335         1.243174458382980    
    0.5540125688409994         1.251835144186682    
    0.5597240386228653         1.260227516948798    
    0.5654355084047313         1.268348059362127    
    0.5711469781865973         1.276193478153332    
    0.5768584479684633         1.283760704417833    
    0.5825699177503293         1.291046893718021    
    0.5882813875321953         1.298049425947468    
    0.5939928573140613         1.304765904964228    
    0.5997043270959272         1.311194157996599    
    0.6054157968777931         1.317332234825132    
    0.6111272666596591         1.323178406744840    
    0.6168387364415251         1.328731165312046    
    0.6225502062233911         1.333989220880432    
    0.6282616760052571         1.338951500931244    
    0.6339731457871230         1.343617148202796    
    0.6396846155689890         1.347985518624734    
    0.6453960853508550         1.352056179062668    
    0.6511075551327210         1.355828904879088    
    0.6568190249145869         1.359303677316612    
    0.6625304946964529         1.362480680709854    
    0.6682419644783189         1.365360299532314    
    0.6739534342601848         1.367943115284907    
    0.6796649040420508         1.370229903232828    
    0.6853763738239168         1.372221628997613    
    0.6910878436057828         1.373919445011335    
    0.6967993133876488         1.375324686839957    
    0.7025107831695148         1.376438869382955    
    0.7082222529513806         1.377263682956356    
    0.7139337227332466         1.377800989266374    
    0.7196451925151126         1.378052817280859    
    0.7253566622969786         1.378021359005760    
    0.7310681320788446         1.377708965173800    
    0.7367796018607106         1.377118140852534    
    0.7424910716425766         1.376251540978908    
    0.7482025414244425         1.375111965827388    
    0.7539140112063085         1.373702356418654    
    0.7596254809881744         1.372025789875769    
    0.7653369507700404         1.370085474734609    
    0.7710484205519064         1.367884746215304    
    0.7767598903337724         1.365427061461196    
    0.7824713601156383         1.362715994751817    
    0.7881828298975043         1.359755232696144    
    0.7938942996793703         1.356548569412284    
    0.7996057694612363         1.353099901699579    
    0.8053172392431023         1.349413224208916    
    0.8110287090249682         1.345492624616899    
    0.8167401788068341         1.341342278809293    
    0.8224516485887001         1.336966446079024    
    0.8281631183705661         1.332369466646577    
    0.8338745881524321         1.327555774954095    
    0.8395860579342981         1.322529826381860    
    0.8452975277161641         1.317296166504228    
    0.8510089974980301         1.311859400473289    
    0.8567204672798960         1.306224188610477    
    0.8624319370617619         1.300395241836433    
    0.8681434068436279         1.294377317150100    
    0.8738548766254939         1.288175213160394    
    0.8795663464073599         1.281793765673682    
    0.8852778161892259         1.275237843339995    
    0.8909892859710918         1.268512343360779    
    0.8967007557529578         1.261622187260748    
    0.9024122255348238         1.254572316726210    
    0.9081236953166898         1.247367689512048    
    0.9138351650985557         1.240013275419366    
    0.9195466348804217         1.232514052345596    
    0.9252581046622876         1.224875002408728    
    0.9309695744441536         1.217101108147117    
    0.9366810442260196         1.209197348796181    
    0.9423925140078856         1.201168696643141    
    0.9481039837897516         1.193020113460813    
    0.9538154535716176         1.184756547021312    
    0.9595269233534836         1.176382927690383    
    0.9652383931353495         1.167904165102987    
    0.9709498629172154         1.159325144920608    
    0.9766613326990814         1.150650725670652    
    0.9823728024809474         1.141885735668231    
    0.9880842722628134         1.133034970020475    
    0.9937957420446794         1.124103187713503    
    0.9995072118265453         1.115095108782007    
     1.005218681608411         1.106015411561452    
     1.010930151390277         1.096868730022694    
     1.016641621172143         1.087659651188903    
     1.022353090954009         1.078392712634490    
     1.028064560735875         1.069072400065797    
     1.033776030517741         1.059703144983230    
     1.039487500299607         1.050289322424470    
     1.045198970081473         1.040835248788393    
     1.050910439863339         1.031345179739323    
     1.056621909645205         1.021823308191173    
     1.062333379427071         1.012273762371083    
     1.068044849208937         1.002700603962117    
     1.073756318990803        0.9931078263245806    
     1.079467788772669        0.9834993527955420    
     1.085179258554535        0.9738790350661299    
     1.090890728336401        0.9642506516361832    
     1.096602198118267        0.9546179063458421    
     1.102313667900133        0.9449844269836934    
     1.108025137681999        0.9353537639710645    
     1.113736607463865        0.9257293891221015    
     1.119448077245731        0.9161146944792723    
     1.125159547027597        0.9065129912239338    
     1.130871016809463        0.8969275086616413    
     1.136582486591329        0.8873613932818630    
     1.142293956373195        0.8778177078918075    
     1.148005426155061        0.8682994308240337    
     1.153716895936927        0.8588094552175874    
     1.159428365718792        0.8493505883723410    
     1.165139835500659        0.8399255511762821    
     1.170851305282524        0.8305369776054644    
     1.176562775064391        0.8211874142963297    
     1.182274244846256        0.8118793201901341    
     1.187985714628123        0.8026150662491756    
     1.193697184409988        0.7933969352445309    
     1.199408654191854        0.7842271216149925    
     1.205120123973720        0.7751077313968653    
     1.210831593755586        0.7660407822242843    
     1.216543063537452        0.7570282033996816    
     1.222254533319318        0.7480718360339988    
     1.227966003101184        0.7391734332562276    
     1.233677472883050        0.7303346604918056    
     1.239388942664916        0.7215570958093716    
     1.245100412446782        0.7128422303353530    
     1.250811882228648        0.7041914687357841    
     1.256523352010514        0.6956061297647449    
     1.262234821792380        0.6870874468787305    
     1.267946291574246        0.6786365689162329    
     1.273657761356112        0.6702545608417421    
     1.279369231137978        0.6619424045533279    
     1.285080700919844        0.6537009997529183    
     1.290792170701710        0.6455311648782891    
     1.296503640483576        0.6374336380957686    
     1.302215110265442        0.6294090783525645    
     1.307926580047308        0.6214580664875584    
     1.313638049829174        0.6135811063660135    
     1.319349519611040        0.6057786259684673    
     1.325060989392906        0.5980509790126463    
     1.330772459174772        0.5903984467414570    
     1.336483928956638        0.5828212392885215    
     1.342195398738504        0.5753194950254684    
     1.347906868520370        0.5678932808586167    
     1.353618338302236        0.5605425956036785    
     1.359329808084102        0.5532673777449300    
     1.365041277865968        0.5460675142660854    
     1.370752747647834        0.5389428505012316    
     1.376464217429699        0.5318931998801347    
     1.382175687211566        0.5249183524369192    
     1.387887156993431        0.5180180780122288    
     1.393598626775298        0.5111921257667712    
     1.399310096557163        0.5044402226857508    
     1.405021566339030        0.4977620742919419    
     1.410733036120895        0.4911573662249870    
     1.416444505902761        0.4846257657197554    
     1.422155975684627        0.4781669225029697    
     1.427867445466493        0.4717804696013284    
     1.433578915248359        0.4654660242104139    
     1.439290385030225        0.4592231885482685    
     1.445001854812091        0.4530515506794852    
     1.450713324593957        0.4469506853078012    
     1.456424794375823        0.4409201545406415    
     1.462136264157689        0.4349595086264315    
     1.467847733939555        0.4290682866655007    
     1.473559203721421        0.4232460172953485    
     1.479270673503287        0.4174922193510720    
     1.484982143285153        0.4118064025016708    
     1.490693613067019        0.4061880678629987    
     1.496405082848885        0.4006367085880400    
     1.502116552630751        0.3951518104352365    
     1.507828022412617        0.3897328523155126    
     1.513539492194483        0.3843793068186847    
     1.519250961976349        0.3790906407198747    
     1.524962431758215        0.3738663154665589    
     1.530673901540081        0.3687057876468698    
     1.536385371321947        0.3636085094397207    
     1.542096841103813        0.3585739290473428    
     1.547808310885679        0.3536014911114754    
     1.553519780667545        0.3486906367722153    
     1.559231250449411        0.3438408041879056    
     1.564942720231277        0.3390514293789660    
     1.570654190013143        0.3343219463202932    
     1.576365659795009        0.3296517872801304    
     1.582077129576875        0.3250403831437856    
     1.587788599358741        0.3204871637238357    
     1.593500069140606        0.3159915580572549    
     1.599211538922473        0.3115529946898927    
     1.604923008704338        0.3071709019487287    
     1.610634478486205        0.3028447082023111    
     1.616345948268070        0.2985738421097662    
     1.622057418049936        0.2943577328587698    
     1.627768887831802        0.2901958103928559    
     1.633480357613668        0.2860875056284081    
     1.639191827395534        0.2820322506617032    
     1.644903297177400        0.2780294789663382    
     1.650614766959266        0.2740786255813665    
     1.656326236741132        0.2701791272904706    
     1.662037706522998        0.2663304227924770    
     1.667749176304864        0.2625319528635207    
     1.673460646086730        0.2587831605111358    
     1.679172115868596        0.2550834911205744    
     1.684883585650462        0.2514323925936149    
     1.690595055432328        0.2478293154801291    
     1.696306525214194        0.2442737131026627    
     1.702017994996060        0.2407650416742871    
     1.707729464777926        0.2373027604099520    
     1.713440934559792        0.2338863316315846    
     1.719152404341658        0.2305152208671520    
     1.724863874123524        0.2271888969439147    
     1.730575343905390        0.2239068320760830    
     1.736286813687256        0.2206685019470717    
     1.741998283469122        0.2174733857865676    
     1.747709753250988        0.2143209664425973    
     1.753421223032854        0.2112107304487747    
     1.759132692814720        0.2081421680869252    
     1.764844162596586        0.2051147734452397    
     1.770555632378452        0.2021280444721545    
     1.776267102160318        0.1991814830260970    
     1.781978571942184        0.1962745949212710    
     1.787690041724050        0.1934068899696328    
     1.793401511505916        0.1905778820191951    
     1.799112981287782        0.1877870889888230    
     1.804824451069648        0.1850340328996433    
     1.810535920851513        0.1823182399032088    
     1.816247390633380        0.1796392403065501    
     1.821958860415245        0.1769965685942322    
     1.827670330197111        0.1743897634475466    
     1.833381799978977        0.1718183677609523    
     1.839093269760843        0.1692819286558773    
     1.844804739542709        0.1667799974919947    
     1.850516209324575        0.1643121298760742    
     1.856227679106441        0.1618778856685175    
     1.861939148888307        0.1594768289876712    
     1.867650618670173        0.1571085282120167    
     1.873362088452039        0.1547725559803272    
     1.879073558233905        0.1524684891898810    
     1.884785028015771        0.1501959089928192    
     1.890496497797637        0.1479544007907300    
     1.896207967579503        0.1457435542275372    
     1.901919437361369        0.1435629631807745    
     1.907630907143235        0.1414122257513196    
     1.913342376925101        0.1392909442516594    
     1.919053846706967        0.1371987251927522    
     1.924765316488833        0.1351351792695634    
     1.930476786270699        0.1330999213453316    
     1.936188256052565        0.1310925704346285    
     1.941899725834431        0.1291127496852772    
     1.947611195616297        0.1271600863591830    
     1.953322665398163        0.1252342118121356    
     1.959034135180029        0.1233347614726326    
     1.964745604961895        0.1214613748197816    
     1.970457074743761        0.1196136953603283    
     1.976168544525627        0.1177913706048583    
     1.981880014307493        0.1159940520432200    
     1.987591484089359        0.1142213951192145    
     1.993302953871225        0.1124730592045959    
     1.999014423653091        0.1107487075724181    
     2.004725893434957        0.1090480073697788    
     2.010437363216822        0.1073706295899877    
     2.016148832998689        0.1057162490442038    
     2.021860302780555        0.1040845443325749    
     2.027571772562421        0.1024751978149128    
     2.033283242344286        0.1008878955809383    
     2.038994712126152        0.9932232742012725E-01
     2.044706181908019        0.9777818679118941E-01
     2.050417651689884        0.9625517079120711E-01
     2.056129121471750        0.9475298012446268E-01
     2.061840591253616        0.9327131907098379E-01
     2.067552061035483        0.9180989545482837E-01
     2.073263530817348        0.9036842061214019E-01
     2.078975000599214        0.8894660935898990E-01
     2.084686470381080        0.8754417995903545E-01
     2.090397940162946        0.8616085409101551E-01
     2.096109409944812        0.8479635681609801E-01
     2.101820879726678        0.8345041654510933E-01
     2.107532349508544        0.8212276500565908E-01
     2.113243819290410        0.8081313720917600E-01
     2.118955289072276        0.7952127141788098E-01
     2.124666758854142        0.7824690911170872E-01
     2.130378228636008        0.7698979495519225E-01
     2.136089698417874        0.7574967676433231E-01
     2.141801168199740        0.7452630547346166E-01
     2.147512637981606        0.7331943510211808E-01
     2.153224107763472        0.7212882272194350E-01
     2.158935577545338        0.7095422842361894E-01
     2.164647047327204        0.6979541528384743E-01
     2.170358517109070        0.6865214933239978E-01
     2.176069986890936        0.6752419951922965E-01
     2.181781456672802        0.6641133768167277E-01
     2.187492926454668        0.6531333851173964E-01
     2.193204396236534        0.6422997952350755E-01
     2.198915866018400        0.6316104102062622E-01
     2.204627335800266        0.6210630606394375E-01
     2.210338805582132        0.6106556043925834E-01
     2.216050275363997        0.6003859262520805E-01
     2.221761745145864        0.5902519376130418E-01
     2.227473214927730        0.5802515761611271E-01
     2.233184684709596        0.5703828055559500E-01
     2.238896154491461        0.5606436151161089E-01
     2.244607624273327        0.5510320195058869E-01
     2.250319094055194        0.5415460584237324E-01
     2.256030563837059        0.5321837962925040E-01
     2.261742033618925        0.5229433219515735E-01
     2.267453503400791        0.5138227483508175E-01
     2.273164973182658        0.5048202122465352E-01
     2.278876442964523        0.4959338738993435E-01
     2.284587912746389        0.4871619167740712E-01
     2.290299382528255        0.4785025472417034E-01
     2.296010852310121        0.4699539942833999E-01
     2.301722322091987        0.4615145091966031E-01
     2.307433791873853        0.4531823653032791E-01
     2.313145261655719        0.4449558576603364E-01
     2.318856731437585        0.4368333027721679E-01
     2.324568201219451        0.4288130383054409E-01
     2.330279671001317        0.4208934228060737E-01
     2.335991140783183        0.4130728354184375E-01
     2.341702610565049        0.4053496756068210E-01
     2.347414080346915        0.3977223628791318E-01
     2.353125550128781        0.3901893365128783E-01
     2.358837019910647        0.3827490552834228E-01
     2.364548489692513        0.3753999971945110E-01
     2.370259959474379        0.3681406592111117E-01
     2.375971429256245        0.3609695569945192E-01
     2.381682899038111        0.3538852246397856E-01
     2.387394368819977        0.3468862144154308E-01
     2.393105838601843        0.3399710965054587E-01
     2.398817308383709        0.3331384587536759E-01
     2.404528778165575        0.3263869064103014E-01
     2.410240247947441        0.3197150618808752E-01
     2.415951717729307        0.3131215644774582E-01
     2.421663187511172        0.3066050701721061E-01
     2.427374657293039        0.3001642513526478E-01
     2.433086127074905        0.2937977965807031E-01
     2.438797596856771        0.2875044103519948E-01
     2.444509066638636        0.2812828128589008E-01
     2.450220536420503        0.2751317397552521E-01
     2.455932006202369        0.2690499419233762E-01
     2.461643475984234        0.2630361852433593E-01
     2.467354945766100        0.2570892503645217E-01
     2.473066415547966        0.2512079324790940E-01
     2.478777885329833        0.2453910410980950E-01
     2.484489355111698        0.2396373998293564E-01
     2.490200824893564        0.2339458461577366E-01
     2.495912294675430        0.2283152312274641E-01
     2.501623764457297        0.2227444196266155E-01
     2.507335234239162        0.2172322891737081E-01
     2.513046704021028        0.2117777307063864E-01
     2.518758173802894        0.2063796478722078E-01
     2.524469643584760        0.2010369569214677E-01
     2.530181113366626        0.1957485865020909E-01
     2.535892583148492        0.1905134774565486E-01
     2.541604052930358        0.1853305826207816E-01
     2.547315522712224        0.1801988666251234E-01
     2.553026992494090        0.1751173056971885E-01
     2.558738462275956        0.1700848874667337E-01
     2.564449932057822        0.1651006107724332E-01
     2.570161401839688        0.1601634854705869E-01
     2.575872871621554        0.1552725322457087E-01
     2.581584341403420        0.1504267824236756E-01
     2.587295811185286        0.1456252779126805E-01
     2.593007280967152        0.1408670743200445E-01
     2.598718750749018        0.1361512649498590E-01
     2.604430220530884        0.1314770558371884E-01
     2.610141690312750        0.1268438954343231E-01
     2.615853160094616        0.1222516232800495E-01
     2.621564629876482        0.1177005944454894E-01
     2.627276099658348        0.1131917546131402E-01
     2.632987569440214        0.1087266612287505E-01
     2.638699039222080        0.1043074587637989E-01
     2.644410509003946        0.9993682079732320E-02
     2.650121978785811        0.9561787150489543E-02
     2.655833448567678        0.9135409693745293E-02
     2.661544918349544        0.8714925377685168E-02
     2.667256388131409        0.8300728080688883E-02
     2.672967857913275        0.7893221638609189E-02
     2.678679327695141        0.7492812376589412E-02
     2.684390797477008        0.7099902508835327E-02
     2.690102267258873        0.6714884422348568E-02
     2.695813737040739        0.6338135817800109E-02
     2.701525206822605        0.5970015655177164E-02
     2.707236676604472        0.5610860838099900E-02
     2.712948146386337        0.5260983564757298E-02
     2.718659616168203        0.4920669272451929E-02
     2.724371085950069        0.4590175104790048E-02
     2.730082555731935        0.4269728834295025E-02
     2.735794025513801        0.3959528177726223E-02
     2.741505495295667        0.3659740446048594E-02
     2.747216965077533        0.3370502475361219E-02
     2.752928434859399        0.3091920788818650E-02
     2.758639904641265        0.2824071942322627E-02
     2.764351374423131        0.2567003008133342E-02
     2.770062844204997        0.2320732149972483E-02
     2.775774313986863        0.2085249239758309E-02
     2.781485783768729        0.1860516458266020E-02
     2.787197253550595        0.1646468806972223E-02
     2.792908723332461        0.1443014430976845E-02
     2.798620193114327        0.1250034603235714E-02
     2.804331662896193        0.1067383128014294E-02
     2.810043132678059        0.8948847422704261E-03
     2.815754602459925        0.7323317239173932E-03
     2.821466072241791        0.5794770885431803E-03
     2.827177542023657        0.4360206940573278E-03
     2.832889011805523        0.3015786106569502E-03
     2.838600481587389        0.1756050318510209E-03
     2.844311951369255        0.5711736958309285E-04
     2.850023421151121         0.000000000000000    
  0  5  1  0  1.000000   #orbital l, n, z, is_polarized, population
 500    0.1571639921459855E-01     7.842483208084676     # npts, delta, cutoff
     0.000000000000000        0.9931361313003656E-01
    0.1571639921459855E-01    0.9986563039836750E-01
    0.3143279842919710E-01    0.1015255601659966    