<preamble>

<basis_specs>
===============================================================================
Si                   Z=  14    Mass=  28.090        Charge= 0.17977+309
Lmxo=2 Lmxkb= 2    BasisType=split      Semic=F
L=0  Nsemic=0  Cnfigmx=3
          i=1  nzeta=2  polorb=0  (3s)
            splnorm:   0.15000    
               vcte:    40.000    
               rinn:    5.1589    
               qcoe:    0.0000    
               qyuk:    0.0000    
               qwid:   0.10000E-01
                rcs:    5.7264      3.9603    
            lambdas:    1.0000      1.0000    
L=1  Nsemic=0  Cnfigmx=3
          i=1  nzeta=2  polorb=1  (3p)  (to be polarized perturbatively)
            splnorm:   0.15000    
               vcte:    40.000    
               rinn:    6.6135    
               qcoe:    0.0000    
               qyuk:    0.0000    
               qwid:   0.10000E-01
                rcs:    7.3410      5.1753    
            lambdas:    1.0000      1.0000    
L=2  Nsemic=0  Cnfigmx=3
          i=1  nzeta=0  polorb=0  (3d)  (perturbative polarization orbital) (from 3p)
-------------------------------------------------------------------------------
L=0  Nkbl=1  erefs: 0.17977+309
L=1  Nkbl=1  erefs: 0.17977+309
L=2  Nkbl=1  erefs: 0.17977+309
===============================================================================
</basis_specs>

<pseudopotential_header>
 Si pw nrl pcec
 ONCVPSP-3.2018-03-09Hamann's oncvpsp                        
 3s 2.00  r= 1.60/3p 2.00  r= 1.72/3d 0.00  r= 1.92/                    3s:3p:
</pseudopotential_header>
</preamble>
Si                            # Symbol
Si                            # Label
   14                         # Atomic number
     4.00000000000                             # Valence charge
     28.0900000000        # Mass 
     16.7535450915        # Self energy 
   2   5                      # Lmax for basis, no. of nl orbitals 
   2   6                      # Lmax for projectors, no. of nl KB projectors
# PAOs:__________________________
  0  3  1  0  2.000000   #orbital l, n, z, is_polarized, population
 500    0.1147572826013672E-01     5.726388401808221     # npts, delta, cutoff
     0.000000000000000        0.1093935226883715    
    0.1147572826013672E-01    0.1094666723762322    
    0.2295145652027343E-01    0.1096882899364374    
    0.3442718478041015E-01    0.1100575979124203    
    0.4590291304054686E-01    0.1105745107731277    
    0.5737864130068358E-01    0.1112389034187783    
    0.6885436956082029E-01    0.1120506056572301    
    0.8033009782095701E-01    0.1130093954051520    
    0.9180582608109372E-01    0.1141149906663320    
    0.1032815543412304        0.1153670404342549    
    0.1147572826013672        0.1167651146944364    
    0.1262330108615039        0.1183086937212708    
    0.1377087391216406        0.1199971568788364    
    0.1491844673817773        0.1218297711456691    
    0.1606601956419140        0.1238056795899418    
    0.1721359239020507        0.1259238900236876    
    0.1836116521621874        0.1281832640626876    
    0.1950873804223242        0.1305825068124189    
    0.2065631086824609        0.1331201573901922    
    0.2180388369425976        0.1357945804794744    
    0.2295145652027343        0.1386039590946712    
    0.2409902934628710        0.1415462887136912    
    0.2524660217230077        0.1446193729117916    
    0.2639417499831445        0.1478208206040190    
    0.2754174782432812        0.1511480449754452    
    0.2868932065034179        0.1545982641489457    
    0.2983689347635546        0.1581685036099853    
    0.3098446630236913        0.1618556003773553    
    0.3213203912838281        0.1656562088786203    
    0.3327961195439648        0.1695668084597306    
    0.3442718478041015        0.1735837124303883    
    0.3557475760642382        0.1777030785208490    
    0.3672233043243749        0.1819209206023513    
    0.3786990325845116        0.1862331215027365    
    0.3901747608446483        0.1906354467314256    
    0.4016504891047850        0.1951235589140529    
    0.4131262173649217        0.1996930327269865    
    0.4246019456250585        0.2043393701158238    
    0.4360776738851952        0.2090580155798781    
    0.4475534021453319        0.2138443713066334    
    0.4590291304054686        0.2186938119461270    
    0.4705048586656053        0.2236016988250389    
    0.4819805869257420        0.2285633934137607    
    0.4934563151858787        0.2335742698765525    
    0.5049320434460155        0.2386297265547944    
    0.5164077717061522        0.2437251962558303    
    0.5278834999662889        0.2488561552446048    
    0.5393592282264256        0.2540181308616798    
    0.5508349564865623        0.2592067077187802    
    0.5623106847466991        0.2644175324512260    
    0.5737864130068357        0.2696463170349175    
    0.5852621412669725        0.2748888407033891    
    0.5967378695271092        0.2801409505273018    
    0.6082135977872459        0.2853985607441336    
    0.6196893260473826        0.2906576509491927    
    0.6311650543075193        0.2959142632800567    
    0.6426407825676561        0.3011644987446766    
    0.6541165108277928        0.3064045128583961    
    0.6655922390879295        0.3116305107667050    
    0.6770679673480662        0.3168387420384886    
    0.6885436956082029        0.3220254953187147    
    0.7000194238683396        0.3271870930298496    
    0.7114951521284764        0.3323198863078426    
    0.7229708803886130        0.3374202503513165    
    0.7344466086487498        0.3424845803518562    
    0.7459223369088865        0.3475092881591961    
    0.7573980651690232        0.3524907998179554    
    0.7688737934291600        0.3574255540927437    
    0.7803495216892966        0.3623100020763191    
    0.7918252499494334        0.3671406079514836    
    0.8033009782095700        0.3719138509520561    
    0.8147767064697068        0.3766262285420119    
    0.8262524347298434        0.3812742608053054    
    0.8377281629899802        0.3858544960124643    
    0.8492038912501170        0.3903635173043299    
    0.8606796195102536        0.3947979504087775    
    0.8721553477703904        0.3991544722833995    
    0.8836310760305270        0.4034298205563693    
    0.8951068042906638        0.4076208036195134    
    0.9065825325508005        0.4117243112122215    
    0.9180582608109372        0.4157373253226739    
    0.9295339890710740        0.4196569312240533    
    0.9410097173312106        0.4234803284581912    
    0.9524854455913474        0.4272048415775452    
    0.9639611738514841        0.4308279304585305    
    0.9754369021116208        0.4343472000049963    
    0.9869126303717575        0.4377604090699608    
    0.9983883586318942        0.4410654784363448    
     1.009864086892031        0.4442604977132098    
     1.021339815152168        0.4473437310225372    
     1.032815543412304        0.4503136213725544    
     1.044291271672441        0.4531687936366277    
     1.055766999932578        0.4559080560812950    
     1.067242728192715        0.4585304004127454    
     1.078718456452851        0.4610350003373295    
     1.090194184712988        0.4634212086581434    
     1.101669912973125        0.4656885529557536    
     1.113145641233261        0.4678367299263064    
     1.124621369493398        0.4698655984740613    
     1.136097097753535        0.4717751716773874    
     1.147572826013671        0.4735656077670337    
     1.159048554273808        0.4752372002726797    
     1.170524282533945        0.4767903675080363    
     1.182000010794082        0.4782256415758765    
     1.193475739054218        0.4795436570821086    
     1.204951467314355        0.4807451397522173    
     1.216427195574492        0.4818308951440357    
     1.227902923834629        0.4828017976478785    
     1.239378652094765        0.4836587799585873    
     1.250854380354902        0.4844028231942195    
     1.262330108615039        0.4850349478230563    
     1.273805836875175        0.4855562055446641    
     1.285281565135312        0.4859676722521354    
     1.296757293395449        0.4862704421817990    
     1.308233021655586        0.4864656233339641    
     1.319708749915722        0.4865543342240953    
     1.331184478175859        0.4865377019986953    
     1.342660206435996        0.4864168619245250    
     1.354135934696132        0.4861929582341091    
     1.365611662956269        0.4858671462852657    
     1.377087391216406        0.4854405959680909    
     1.388563119476543        0.4849144962698760    
     1.400038847736679        0.4842900608872797    
     1.411514575996816        0.4835685347560634    
     1.422990304256953        0.4827512013521991    
     1.434466032517089        0.4818393906044363    
     1.445941760777226        0.4808344872477212    
     1.457417489037363        0.4797379394393766    
     1.468893217297500        0.4785512674557625    
     1.480368945557636        0.4772760722863427    
     1.491844673817773        0.4759140439446277    
     1.503320402077910        0.4744669693213028    
     1.514796130338046        0.4729367394138410    
     1.526271858598183        0.4713253557788391    
     1.537747586858320        0.4696349360679856    
     1.549223315118456        0.4678677185905053    
     1.560699043378593        0.4660260658182225    
     1.572174771638730        0.4641124658240772    
     1.583650499898867        0.4621295310208839    
     1.595126228159004        0.4600800071468907    
     1.606601956419140        0.4579667691582519    
     1.618077684679277        0.4557927624611931    
     1.629553412939414        0.4535609208041355    
     1.641029141199550        0.4512740972411100    
     1.652504869459687        0.4489350437269748    
     1.663980597719824        0.4465464259896345    
     1.675456325979960        0.4441108277095246    
     1.686932054240097        0.4416307501909412    
     1.698407782500234        0.4391086149517760    
     1.709883510760370        0.4365467660380011    
     1.721359239020507        0.4339474721714366    
     1.732834967280644        0.4313129288416688    
     1.744310695540781        0.4286452603425582    
     1.755786423800918        0.4259465217548320    
     1.767262152061054        0.4232187008762763    
     1.778737880321191        0.4204637201010150    
     1.790213608581328        0.4176834382493060    
     1.801689336841464        0.4148796523492229    
     1.813165065101601        0.4120540993715636    
     1.824640793361738        0.4092084579192569    
     1.836116521621874        0.4063443498725092    
     1.847592249882011        0.4034633419908897    
     1.859067978142148        0.4005669474735011    
     1.870543706402285        0.3976566274783567    
     1.882019434662421        0.3947337926020357    
     1.893495162922558        0.3917998043206615    
     1.904970891182695        0.3888559763932098    
     1.916446619442831        0.3859035762281203    
     1.927922347702968        0.3829438262141566    
     1.939398075963105        0.3799779050164330    
     1.950873804223242        0.3770069488384876    
     1.962349532483378        0.3740320526512692    
     1.973825260743515        0.3710542713898697    
     1.985300989003652        0.3680746211188110    
     1.996776717263788        0.3650940801666796    
     2.008252445523925        0.3621135902308665    
     2.019728173784062        0.3591340574531642    
     2.031203902044199        0.3561563534669399    
     2.042679630304336        0.3531813164165907    
     2.054155358564472        0.3502097519499691    
     2.065631086824609        0.3472424341844446    
     2.077106815084746        0.3442801066472527    
     2.088582543344882        0.3413234831907684    
     2.100058271605019        0.3383732488833187    
     2.111533999865156        0.3354300608761432    
     2.123009728125292        0.3324945492470865    
     2.134485456385429        0.3295673178215987    
     2.145961184645566        0.3266489449716060    
     2.157436912905702        0.3237399843927959    
     2.168912641165839        0.3208409658608539    
     2.180388369425976        0.3179523959671717    
     2.191864097686113        0.3150747588345377    
     2.203339825946249        0.3122085168133056    
     2.214815554206386        0.3093541111585295    
     2.226291282466523        0.3065119626885386    
     2.237767010726659        0.3036824724254166    
     2.249242738986796        0.3008660222178388    
     2.260718467246933        0.2980629753467093    
     2.272194195507069        0.2952736771140314    
     2.283669923767206        0.2924984554154353    
     2.295145652027343        0.2897376212967733    
     2.306621380287480        0.2869914694951899    
     2.318097108547617        0.2842602789650594    
     2.329572836807753        0.2815443133891742    
     2.341048565067890        0.2788438216755662    
     2.352524293328027        0.2761590384403244    
     2.364000021588163        0.2734901844767691    
     2.375475749848300        0.2708374672113358    
     2.386951478108437        0.2682010811465101    
     2.398427206368574        0.2655812082911489    
     2.409902934628710        0.2629780185785179    
     2.421378662888847        0.2603916702723598    
     2.432854391148984        0.2578223103613104    
     2.444330119409120        0.2552700749419662    
     2.455805847669257        0.2527350895909006    
     2.467281575929394        0.2502174697259191    
     2.478757304189530        0.2477173209568379    
     2.490233032449667        0.2452347394260645    
     2.501708760709804        0.2427698121392493    
     2.513184488969941        0.2403226172862701    
     2.524660217230077        0.2378932245528129    
     2.536135945490214        0.2354816954227943    
     2.547611673750351        0.2330880834718757    
     2.559087402010487        0.2307124346523055    
     2.570563130270624        0.2283547875693247    
     2.582038858530761        0.2260151737493642    
     2.593514586790898        0.2236936179002525    
     2.604990315051035        0.2213901381636558    
     2.616466043311171        0.2191047463599592    
     2.627941771571308        0.2168374482257941    
     2.639417499831445        0.2145882436444145    
     2.650893228091581        0.2123571268691205    
     2.662368956351718        0.2101440867399121    
     2.673844684611855        0.2079491068935717    
     2.685320412871991        0.2057721659673445    
     2.696796141132128        0.2036132377964033    
     2.708271869392265        0.2014722916052655    
     2.719747597652402        0.1993492921933285    
     2.731223325912538        0.1972442001146957    
     2.742699054172675        0.1951569718524411    
     2.754174782432812        0.1930875599874782    
     2.765650510692948        0.1910359133621789    
     2.777126238953085        0.1890019772388893    
     2.788601967213222        0.1869856934534927    
     2.800077695473358        0.1849870005641500    
     2.811553423733495        0.1830058339953629    
     2.823029151993632        0.1810421261774863    
     2.834504880253768        0.1790958066818218    
     2.845980608513905        0.1771668023514180    
     2.857456336774042        0.1752550374276996    
     2.868932065034179        0.1733604336730440    
     2.880407793294316        0.1714829104894225    
     2.891883521554452        0.1696223850332181    
     2.903359249814589        0.1677787723263305    
     2.914834978074726        0.1659519853636744    
     2.926310706334863        0.1641419352171769    
     2.937786434594999        0.1623485311363722    
     2.949262162855136        0.1605716806456962    
     2.960737891115273        0.1588112896385716    
     2.972213619375409        0.1570672624683846    
     2.983689347635546        0.1553395020364332    
     2.995165075895683        0.1536279098769469    
     3.006640804155819        0.1519323862392541    
     3.018116532415956        0.1502528301671860    
     3.029592260676093        0.1485891395757987    
     3.041067988936230        0.1469412113254859    
     3.052543717196366        0.1453089412935700    
     3.064019445456503        0.1436922244434329    
     3.075495173716640        0.1420909548912729    
     3.086970901976776        0.1405050259705466    
     3.098446630236913        0.1389343302941717    
     3.109922358497050        0.1373787598145548    
     3.121398086757186        0.1358382058815084    
     3.132873815017323        0.1343125592981228    
     3.144349543277460        0.1328017103746509    
     3.155825271537597        0.1313055489804676    
     3.167300999797733        0.1298239645941610    
     3.178776728057870        0.1283568463518129    
     3.190252456318007        0.1269040830935204    
     3.201728184578144        0.1254655634082147    
     3.213203912838280        0.1240411756768268    
     3.224679641098417        0.1226308081138524    
     3.236155369358554        0.1212343488073623    
     3.247631097618691        0.1198516857575061    
     3.259106825878827        0.1184827069135578    
     3.270582554138964        0.1171273002095453    
     3.282058282399101        0.1157853535985062    
     3.293534010659237        0.1144567550854177    
     3.305009738919374        0.1131413927588345    
     3.316485467179511        0.1118391548212790    
     3.327961195439647        0.1105499296184220    
     3.339436923699784        0.1092736056670898    
     3.350912651959921        0.1080100716821361    
     3.362388380220057        0.1067592166022115    
     3.373864108480194        0.1055209296144697    
     3.385339836740331        0.1042951001782373    
     3.396815565000468        0.1030816180476857    
     3.408291293260604        0.1018803732935333    
     3.419767021520741        0.1006912563238091    
     3.431242749780878        0.9951415790370863E-01
     3.442718478041014        0.9834896917456851E-01
     3.454194206301151        0.9719558167199074E-01
     3.465669934561288        0.9605388734314205E-01
     3.477145662821425        0.9492377856325436E-01
     3.488621391081562        0.9380514815135356E-01
     3.500097119341698        0.9269788938523991E-01
     3.511572847601835        0.9160189601574602E-01
     3.523048575861972        0.9051706228029310E-01
     3.534524304122108        0.8944328291577106E-01
     3.546000032382245        0.8838045317076246E-01
     3.557475760642382        0.8732846881713340E-01
     3.568951488902518        0.8628722616101189E-01
     3.580427217162655        0.8525662205317053E-01
     3.591902945422792        0.8423655389883920E-01
     3.603378673682929        0.8322691966696116E-01
     3.614854401943065        0.8222761789891500E-01
     3.626330130203202        0.8123854771671686E-01
     3.637805858463339        0.8025960883072321E-01
     3.649281586723475        0.7929070154684931E-01
     3.660757314983612        0.7833172677332056E-01
     3.672233043243749        0.7738258602697222E-01
     3.683708771503885        0.7644318143911245E-01
     3.695184499764022        0.7551341576096428E-01
     3.706660228024159        0.7459319236870089E-01
     3.718135956284296        0.7368241526808823E-01
     3.729611684544432        0.7278098909874779E-01
     3.741087412804569        0.7188881913805387E-01
     3.752563141064706        0.7100581130467744E-01
     3.764038869324843        0.7013187216179008E-01
     3.775514597584980        0.6926690891993682E-01
     3.786990325845116        0.6841082943959485E-01
     3.798466054105253        0.6756354223342438E-01
     3.809941782365390        0.6672495646822571E-01
     3.821417510625526        0.6589498196661223E-01
     3.832893238885663        0.6507352920840824E-01
     3.844368967145800        0.6426050933178494E-01
     3.855844695405936        0.6345583413414121E-01
     3.867320423666073        0.6265941607273909E-01
     3.878796151926210        0.6187116826510503E-01
     3.890271880186346        0.6109100448920321E-01
     3.901747608446483        0.6031883918339126E-01
     3.913223336706620        0.5955458744616608E-01
     3.924699064966757        0.5879816503570685E-01
     3.936174793226893        0.5804948836922491E-01
     3.947650521487030        0.5730847452212728E-01
     3.959126249747167        0.5657504122699920E-01
     3.970601978007303        0.5584910687241638E-01
     3.982077706267440        0.5513059050159121E-01
     3.993553434527577        0.5441941181085996E-01
     4.005029162787713        0.5371549114801800E-01
     4.016504891047850        0.5301874951050927E-01
     4.027980619307987        0.5232910854347517E-01
     4.039456347568124        0.5164649053767007E-01
     4.050932075828261        0.5097081842724761E-01
     4.062407804088397        0.5030201578742442E-01
     4.073883532348534        0.4964000683202619E-01
     4.085359260608671        0.4898471641092083E-01
     4.096834988868808        0.4833607000734443E-01
     4.108310717128944        0.4769399373512465E-01
     4.119786445389081        0.4705841433580472E-01
     4.131262173649217        0.4642925917567601E-01
     4.142737901909355        0.4580645624271884E-01
     4.154213630169491        0.4518993414346072E-01
     4.165689358429628        0.4457962209975169E-01
     4.177165086689764        0.4397544994546386E-01
     4.188640814949901        0.4337734812311723E-01
     4.200116543210037        0.4278524768043618E-01
     4.211592271470175        0.4219908026684005E-01
     4.223067999730311        0.4161877812987167E-01
     4.234543727990448        0.4104427411156548E-01
     4.246019456250584        0.4047550164476153E-01
     4.257495184510721        0.3991239474936550E-01
     4.268970912770858        0.3935488802855910E-01
     4.280446641030995        0.3880291666496436E-01
     4.291922369291131        0.3825641641676280E-01
     4.303398097551268        0.3771532361377411E-01
     4.314873825811405        0.3717957515349587E-01
     4.326349554071542        0.3664910849710710E-01
     4.337825282331679        0.3612386166543829E-01
     4.349301010591815        0.3560377323490956E-01
     4.360776738851952        0.3508878233344061E-01
     4.372252467112088        0.3457882863633285E-01
     4.383728195372226        0.3407385236212764E-01
     4.395203923632362        0.3357379426844150E-01
     4.406679651892499        0.3307859564778014E-01
     4.418155380152635        0.3258819832333461E-01
     4.429631108412772        0.3210254464475979E-01
     4.441106836672909        0.3162157748393783E-01
     4.452582564933046        0.3114524023072833E-01
     4.464058293193182        0.3067347678870616E-01
     4.475534021453319        0.3020623157088973E-01
     4.487009749713455        0.2974344949545987E-01
     4.498485477973593        0.2928507598147140E-01
     4.509961206233729        0.2883105694456000E-01
     4.521436934493866        0.2838133879264250E-01
     4.532912662754002        0.2793586842161572E-01
     4.544388391014139        0.2749459321105319E-01
     4.555864119274276        0.2705746101989964E-01
     4.567339847534413        0.2662442018216808E-01
     4.578815575794549        0.2619541950263680E-01
     4.590291304054686        0.2577040825254938E-01
     4.601767032314823        0.2534933616531872E-01
     4.613242760574960        0.2493215343223509E-01
     4.624718488835097        0.2451881069818022E-01
     4.636194217095233        0.2410925905734766E-01
     4.647669945355370        0.2370345004897028E-01
     4.659145673615506        0.2330133565305662E-01
     4.670621401875643        0.2290286828613523E-01
     4.682097130135780        0.2250800079700939E-01
     4.693572858395917        0.2211668646252210E-01
     4.705048586656053        0.2172887898333249E-01
     4.716524314916190        0.2134453247970440E-01
     4.728000043176326        0.2096360148730472E-01
     4.739475771436464        0.2058604095301701E-01
     4.750951499696600        0.2021180623076911E-01
     4.762427227956737        0.1984085307737447E-01
     4.773902956216873        0.1947313764838856E-01
     4.785378684477010        0.1910861649397965E-01
     4.796854412737147        0.1874724655481513E-01
     4.808330140997284        0.1838898515796453E-01
     4.819805869257420        0.1803379001281832E-01
     4.831281597517557        0.1768161920702462E-01
     4.842757325777693        0.1733243120244195E-01
     4.854233054037831        0.1698618483111101E-01
     4.865708782297967        0.1664283929124369E-01
     4.877184510558104        0.1630235414323012E-01
     4.888660238818241        0.1596468930566500E-01
     4.900135967078377        0.1562980505139234E-01
     4.911611695338514        0.1529766200356939E-01
     4.923087423598651        0.1496822113175018E-01
     4.934563151858788        0.1464144374798803E-01
     4.946038880118924        0.1431729150295907E-01
     4.957514608379061        0.1399572638210425E-01
     4.968990336639198        0.1367671070179269E-01
     4.980466064899335        0.1336020710550498E-01
     4.991941793159471        0.1304617856003670E-01
     5.003417521419608        0.1273458835172304E-01
     5.014893249679744        0.1242540008268361E-01
     5.026368977939882        0.1211857766708899E-01
     5.037844706200018        0.1181408532744690E-01
     5.049320434460155        0.1151188759091098E-01
     5.060796162720291        0.1121194928560930E-01
     5.072271890980428        0.1091423553699485E-01
     5.083747619240565        0.1061871176421686E-01
     5.095223347500702        0.1032534367651352E-01
     5.106699075760838        0.1003409726962636E-01
     5.118174804020975        0.9744938822234891E-02
     5.129650532281111        0.9457834892413915E-02
     5.141126260541249        0.9172752314111052E-02
     5.152601988801385        0.8889658193646333E-02
     5.164077717061522        0.8608519906232343E-02
     5.175553445321659        0.8329305092516311E-02
     5.187029173581795        0.8051981655144138E-02
     5.198504901841932        0.7776517757032874E-02
     5.209980630102069        0.7502881913824406E-02
     5.221456358362206        0.7231044155554671E-02
     5.232932086622342        0.6960981133580491E-02
     5.244407814882479        0.6692687253046369E-02
     5.255883543142615        0.6426189613125299E-02
     5.267359271402753        0.6161562052905870E-02
     5.278834999662889        0.5898934666989107E-02
     5.290310727923026        0.5638497473644101E-02
     5.301786456183162        0.5380498679306381E-02
     5.313262184443299        0.5125238811200158E-02
     5.324737912703436        0.4873062151193769E-02
     5.336213640963573        0.4624346730225513E-02
     5.347689369223709        0.4379493856111688E-02
     5.359165097483846        0.4138917862146578E-02
     5.370640825743982        0.3903036524844994E-02
     5.382116554004120        0.3672262416396400E-02
     5.393592282264256        0.3446995325659102E-02
     5.405068010524393        0.3227615790840673E-02
     5.416543738784529        0.3014479727219185E-02
     5.428019467044666        0.2807914095763462E-02
     5.439495195304803        0.2608213536607863E-02
     5.450970923564940        0.2415637880074426E-02
     5.462446651825076        0.2230410443740148E-02
     5.473922380085213        0.2052717024424243E-02
     5.485398108345350        0.1882705497170470E-02
     5.496873836605487        0.1720485938149788E-02
     5.508349564865624        0.1566131194083791E-02
     5.519825293125760        0.1419677826754264E-02
     5.531301021385897        0.1281127367022667E-02
     5.542776749646033        0.1150447818260219E-02
     5.554252477906171        0.1027575353933782E-02
     5.565728206166307        0.9124161580489868E-03
     5.577203934426444        0.8048483598712804E-03
     5.588679662686580        0.7047240152765502E-03
     5.600155390946717        0.6118710852828375E-03
     5.611631119206854        0.5260953560563840E-03
     5.623106847466991        0.4471822306646785E-03
     5.634582575727127        0.3748982944244898E-03
     5.646058303987264        0.3089924987335515E-03
     5.657534032247400        0.2491966905862652E-03
     5.669009760507537        0.1952249567567125E-03
     5.680485488767674        0.1467706327491438E-03
     5.691961217027811        0.1034981480752785E-03
     5.703436945287947        0.6502143881097787E-04
     5.714912673548084        0.3083727148033823E-04
     5.726388401808221         0.000000000000000    
  0  3  2  0  0.000000   #orbital l, n, z, is_polarized, population
 500    0.7936378704872595E-02     3.960252973731425     # npts, delta, cutoff
     0.000000000000000       -0.1369238580208575    
    0.7936378704872595E-02   -0.1368578974888227    
    0.1587275740974519E-01   -0.1366559204527803    
    0.2380913611461779E-01   -0.1363193142846175    
    0.3174551481949038E-01   -0.1358481150573136    
    0.3968189352436298E-01   -0.1352423739074592    
    0.4761827222923557E-01   -0.1345021584624472    
    0.5555465093410816E-01   -0.1336275543284046    
    0.6349102963898076E-01   -0.1326186668412189    
    0.7142740834385336E-01   -0.1314756230884674    
    0.7936378704872596E-01   -0.1301985741882739    
    0.8730016575359854E-01   -0.1287876978052100    
    0.9523654445847114E-01   -0.1272432008802451    
    0.1031729231633437       -0.1255653225494481    
    0.1111093018682163       -0.1237543372242531    
    0.1190456805730889       -0.1218105578044909    
    0.1269820592779615       -0.1197343389940801    
    0.1349184379828341       -0.1175260806882176    
    0.1428548166877067       -0.1151862314001501    
    0.1507911953925793       -0.1127152916951276    
    0.1587275740974519       -0.1101138175989515    
    0.1666639528023245       -0.1073824239486274    