<preamble>

<basis_specs>
===============================================================================
Sr                   Z=  38    Mass=  87.620        Charge= 0.17977+309
Lmxo=1 Lmxkb= 2    BasisType=split      Semic=T
L=0  Nsemic=1  Cnfigmx=5
          i=1  nzeta=1  polorb=0  (4s)  (semicore shell)
            splnorm:   0.15000    
               vcte:    40.000    
               rinn:    3.3227    
               qcoe:    0.0000    
               qyuk:    0.0000    
               qwid:   0.10000E-01
                rcs:    3.6918    
            lambdas:    1.0000    
          i=2  nzeta=2  polorb=0  (5s)  (to be polarized non-perturbatively)
            splnorm:   0.15000    
               vcte:    40.000    
               rinn:    8.3930    
               qcoe:    0.0000    
               qyuk:    0.0000    
               qwid:   0.10000E-01
                rcs:    9.3162      6.9685    
            lambdas:    1.0000      1.0000    
L=1  Nsemic=1  Cnfigmx=5
          i=1  nzeta=1  polorb=0  (4p)  (semicore shell)
            splnorm:   0.15000    
               vcte:    40.000    
               rinn:    3.9203    
               qcoe:    0.0000    
               qyuk:    0.0000    
               qwid:   0.10000E-01
                rcs:    4.3516    
            lambdas:    1.0000    
          i=2  nzeta=1  polorb=0  (5p)  (non-perturbative polarization shell)
            splnorm:   0.15000    
               vcte:    40.000    
               rinn:    8.3930    
               qcoe:    0.0000    
               qyuk:    0.0000    
               qwid:   0.10000E-01
                rcs:    9.3162    
            lambdas:    1.0000    
-------------------------------------------------------------------------------
L=0  Nkbl=2  erefs: 0.17977+309 0.17977+309
L=1  Nkbl=2  erefs: 0.17977+309 0.17977+309
L=2  Nkbl=1  erefs: 0.17977+309
===============================================================================
</basis_specs>

<pseudopotential_header>
 Sr pw nrl pcec
 ONCVPSP-3.2018-03-09Hamann's oncvpsp                        
 4s 2.00  r= 1.67/4p 6.00  r= 1.31/4d 0.00  r= 1.52/                    4s:4p:5s:
</pseudopotential_header>
</preamble>
Sr                            # Symbol
Sr                            # Label
   38                         # Atomic number
     10.0000000000                             # Valence charge
     87.6200000000        # Mass 
     123.620656877        # Self energy 
   1   5                      # Lmax for basis, no. of nl orbitals 
   2   6                      # Lmax for projectors, no. of nl KB projectors
# PAOs:__________________________
  0  4  1  0  2.000000   #orbital l, n, z, is_polarized, population
 500    0.7398475623587961E-02     3.691839336170392     # npts, delta, cutoff
     0.000000000000000        0.1691268071899498    
    0.7398475623587961E-02    0.1692490834022143    
    0.1479695124717592E-01    0.1696242629364538    
    0.2219542687076388E-01    0.1702492679463572    
    0.2959390249435184E-01    0.1711236525674188    
    0.3699237811793980E-01    0.1722467941535143    
    0.4439085374152776E-01    0.1736178930633479    
    0.5178932936511572E-01    0.1752359731121106    
    0.5918780498870369E-01    0.1770998822124263    
    0.6658628061229165E-01    0.1792082931520953    
    0.7398475623587961E-01    0.1815597044985284    
    0.8138323185946757E-01    0.1841524416275343    
    0.8878170748305553E-01    0.1869846578760877    
    0.9618018310664349E-01    0.1900543358193448    
    0.1035786587302314        0.1933592886724149    
    0.1109771343538194        0.1968971618175006    
    0.1183756099774074        0.2006654344570659    
    0.1257740856009953        0.2046614213937146    
    0.1331725612245833        0.2088822749374352    
    0.1405710368481712        0.2133249869408602    
    0.1479695124717592        0.2179863909631341    
    0.1553679880953472        0.2228631645629295    
    0.1627664637189351        0.2279518317210671    
    0.1701649393425231        0.2332487653931167    
    0.1775634149661111        0.2387501901922314    
    0.1849618905896990        0.2444521852023535    
    0.1923603662132870        0.2503506869217869    
    0.1997588418368749        0.2564414923369656    
    0.2071573174604629        0.2627202621260912    
    0.2145557930840509        0.2691825239921077    
    0.2219542687076388        0.2758236761242911    
    0.2293527443312268        0.2826389907875066    
    0.2367512199548147        0.2896236180379668    
    0.2441496955784027        0.2967725895640729    
    0.2515481712019907        0.3040808226506720    
    0.2589466468255786        0.3115431242648017    
    0.2663451224491666        0.3191541952607128    
    0.2737435980727546        0.3269086347016900    
    0.2811420736963425        0.3348009442958944    
    0.2885405493199305        0.3428255329431549    
    0.2959390249435184        0.3509767213893512    
    0.3033375005671064        0.3592487469847080    
    0.3107359761906944        0.3676357685420325    
    0.3181344518142823        0.3761318712906168    
    0.3255329274378703        0.3847310719212248    
    0.3329314030614582        0.3934273237172768    
    0.3403298786850462        0.4022145217670593    
    0.3477283543086341        0.4110865082514855    
    0.3551268299322221        0.4200370778016517    
    0.3625253055558101        0.4290599829201584    
    0.3699237811793981        0.4381489394599009    
    0.3773222568029860        0.4472976321537731    
    0.3847207324265740        0.4564997201884889    
    0.3921192080501619        0.4657488428155026    
    0.3995176836737498        0.4750386249917775    
    0.4069161592973378        0.4843626830429861    
    0.4143146349209258        0.4937146303415044    
    0.4217131105445138        0.5030880829914499    
    0.4291115861681017        0.5124766655128228    
    0.4365100617916897        0.5218740165167284    
    0.4439085374152776        0.5312737943635395    
    0.4513070130388656        0.5406696827957821    
    0.4587054886624535        0.5500553965374835    
    0.4661039642860415        0.5594246868516795    
    0.4735024399096295        0.5687713470477817    
    0.4809009155332175        0.5780892179305140    
    0.4882993911568054        0.5873721931821825    
    0.4956978667803933        0.5966142246700893    
    0.5030963424039814        0.6058093276710226    
    0.5104948180275692        0.6149515860048470    
    0.5178932936511572        0.6240351570693661    
    0.5252917692747452        0.6330542767688023    
    0.5326902448983332        0.6420032643284218    
    0.5400887205219211        0.6508765269880485    
    0.5474871961455091        0.6596685645674327    
    0.5548856717690971        0.6683739738967345    
    0.5622841473926850        0.6769874531055982    
    0.5696826230162729        0.6855038057646700    
    0.5770810986398609        0.6939179448736570    
    0.5844795742634489        0.7022248966904062    
    0.5918780498870369        0.7104198043958219    
    0.5992765255106248        0.7184979315898112    
    0.6066750011342128        0.7264546656138207    
    0.6140734767578008        0.7342855206959260    
    0.6214719523813887        0.7419861409148726    
    0.6288704280049766        0.7495523029798139    
    0.6362689036285646        0.7569799188230146    
    0.6436673792521526        0.7642650380031182    
    0.6510658548757405        0.7714038499170938    
    0.6584643304993285        0.7783926858193888    
    0.6658628061229165        0.7852280206472338    
    0.6732612817465045        0.7919064746515398    
    0.6806597573700923        0.7984248148332166    
    0.6880582329936803        0.8047799561852303    
    0.6954567086172683        0.8109689627411065    
    0.7028551842408562        0.8169890484310368    
    0.7102536598644442        0.8228375777471758    
    0.7176521354880322        0.8285120662200939    
    0.7250506111116202        0.8340101807087830    
    0.7324490867352081        0.8393297395069731    
    0.7398475623587961        0.8444687122689224    
    0.7472460379823840        0.8494252197581550    
    0.7546445136059720        0.8541975334230099    
    0.7620429892295599        0.8587840748031677    
    0.7694414648531479        0.8631834147716176    
    0.7768399404767359        0.8673942726168271    
    0.7842384161003239        0.8714155149701579    
    0.7916368917239118        0.8752461545837704    
    0.7990353673474997        0.8788853489645360    
    0.8064338429710877        0.8823323988696329    
    0.8138323185946756        0.8855867466697241    
    0.8212307942182636        0.8886479745857072    
    0.8286292698418516        0.8915158028052339    
    0.8360277454654396        0.8941900874852384    
    0.8434262210890275        0.8966708186468381    
    0.8508246967126155        0.8989581179690080    
    0.8582231723362035        0.9010522364874831    
    0.8656216479597914        0.9029535522053436    
    0.8730201235833793        0.9046625676217289    
    0.8804185992069673        0.9061799071851135    
    0.8878170748305553        0.9075063146774948    
    0.8952155504541432        0.9086426505357865    
    0.9026140260777312        0.9095898891166202    
    0.9100125017013192        0.9103491159106264    
    0.9174109773249071        0.9109215247121503    
    0.9248094529484950        0.9113084147501946    
    0.9322079285720830        0.9115111877862200    
    0.9396064041956710        0.9115313451842596    
    0.9470048798192590        0.9113704849585843    
    0.9544033554428469        0.9110302988039765    
    0.9618018310664349        0.9105125691134268    
    0.9692003066900229        0.9098191659878462    
    0.9765987823136109        0.9089520442421425    
    0.9839972579371987        0.9079132404117731    
    0.9913957335607867        0.9067048697636161    
    0.9987942091843747        0.9053291233147586    
     1.006192684807963        0.9037882648625364    
     1.013591160431551        0.9020846280288867    
     1.020989636055138        0.9002206133218297    
     1.028388111678727        0.8981986852166144    
     1.035786587302314        0.8960213692588258    
     1.043185062925903        0.8936912491914656    
     1.050583538549490        0.8912109641077981    
     1.057982014173078        0.8885832056314847    
     1.065380489796666        0.8858107151253115    
     1.072778965420254        0.8828962809295577    
     1.080177441043842        0.8798427357802459    
     1.087575916667430        0.8766529539124368    
     1.094974392291018        0.8733298480801251    
     1.102372867914606        0.8698763675358051    
     1.109771343538194        0.8662954951685944    
     1.117169819161782        0.8625902449314788    
     1.124568294785370        0.8587636593000857    
     1.131966770408958        0.8548188067627209    
     1.139365246032546        0.8507587793412089    
     1.146763721656134        0.8465866901419633    
     1.154162197279722        0.8423056709366507    
     1.161560672903310        0.8379188697717266    
     1.168959148526898        0.8334294486060871    
     1.176357624150486        0.8288405809760284    
     1.183756099774074        0.8241554496866985    
     1.191154575397662        0.8193772445292139    
     1.198553051021250        0.8145091600226310    
     1.205951526644838        0.8095543931799833    
     1.213350002268426        0.8045161412976324    
     1.220748477892013        0.7993975997672390    
     1.228146953515602        0.7942019599097290    
     1.235545429139189        0.7889324068306944    
     1.242943904762777        0.7835921172967779    
     1.250342380386365        0.7781842576326711    
     1.257740856009953        0.7727119816384803    
     1.265139331633541        0.7671784285273262    
     1.272537807257129        0.7615867208831727    
     1.279936282880717        0.7559399626390062    
     1.287334758504305        0.7502412370756396    
     1.294733234127893        0.7444936048415409    
     1.302131709751481        0.7387001019942478    
     1.309530185375069        0.7328637380640649    
     1.316928660998657        0.7269874941409130    
     1.324327136622245        0.7210743209853084    
     1.331725612245833        0.7151271371646468    
     1.339124087869421        0.7091488272160812    
     1.346522563493009        0.7031422398374100    
     1.353921039116597        0.6971101861075929    
     1.361319514740185        0.6910554377385926    
     1.368717990363773        0.6849807253603605    
     1.376116465987361        0.6788887368409569    
     1.383514941610949        0.6727821156438455    
     1.390913417234537        0.6666634592245317    
     1.398311892858125        0.6605353174688040    
     1.405710368481712        0.6544001911749311    
     1.413108844105301        0.6482605305822022    
     1.420507319728888        0.6421187339482808    
     1.427905795352476        0.6359771461778744    
     1.435304270976064        0.6298380575052563    
     1.442702746599652        0.6237037022331956    
     1.450101222223240        0.6175762575308383    
     1.457499697846828        0.6114578422930961    
     1.464898173470416        0.6053505160640413    
     1.472296649094004        0.5992562778318338    
     1.479695124717592        0.5931770637076894    
     1.487093600341180        0.5871147482600836    
     1.494492075964768        0.5810711433695497    
     1.501890551588356        0.5750479972702257    
     1.509289027211944        0.5690469939060071    
     1.516687502835532        0.5630697523663951    
     1.524085978459120        0.5571178264038502    
     1.531484454082708        0.5511927040343152    
     1.538882929706296        0.5452958072223973    
     1.546281405329884        0.5394284916525398    
     1.553679880953472        0.5335920465873263    
     1.561078356577060        0.5277876948138780    
     1.568476832200648        0.5220165926791011    
     1.575875307824236        0.5162798302143297    
     1.583273783447824        0.5105784313497149    
     1.590672259071412        0.5049133542184737    
     1.598070734694999        0.4992854915508962    
     1.605469210318587        0.4936956711578017    
     1.612867685942175        0.4881446564942981    
     1.620266161565763        0.4826331472121445    
     1.627664637189351        0.4771617800771939    
     1.635063112812939        0.4717311301866403    
     1.642461588436527        0.4663417120208923    
     1.649860064060115        0.4609939788079669    
     1.657258539683703        0.4556883224900258    
     1.664657015307291        0.4504250765797785    
     1.672055490930879        0.4452045228967771    
     1.679453966554467        0.4400268993101974    
     1.686852442178055        0.4348924080670203    
     1.694250917801643        0.4298012236258864    
     1.701649393425231        0.4247534987840844    
     1.709047869048819        0.4197493659343120    
     1.716446344672407        0.4147889363210316    
     1.723844820295995        0.4098722993145699    
     1.731243295919583        0.4049995236173075    
     1.738641771543171        0.4001706584403837    
     1.746040247166759        0.3953857344491774    
     1.753438722790347        0.3906447643781332    
     1.760837198413935        0.3859477437373359    
     1.768235674037523        0.3812946515101147    
     1.775634149661111        0.3766854508320035    
     1.783032625284698        0.3721200896465609    
     1.790431100908286        0.3675985013405382    
     1.797829576531874        0.3631206053589794    
     1.805228052155462        0.3586863078008235    
     1.812626527779050        0.3542955019955380    
     1.820025003402638        0.3499480690613136    
     1.827423479026226        0.3456438784453380    
     1.834821954649814        0.3413827884466452    
     1.842220430273402        0.3371646467220391    
     1.849618905896990        0.3329892907755611    
     1.857017381520578        0.3288565484319747    
     1.864415857144166        0.3247662382947227    
     1.871814332767754        0.3207181701887979    
     1.879212808391342        0.3167121455889638    
     1.886611284014930        0.3127479580337457    
     1.894009759638518        0.3088253935256065    
     1.901408235262106        0.3049442309177064    
     1.908806710885694        0.3011042422876344    
     1.916205186509282        0.2973051932985051    
     1.923603662132870        0.2935468435477720    
     1.931002137756458        0.2898289469041384    
     1.938400613380046        0.2861512518329057    
     1.945799089003634        0.2825135017101031    
     1.953197564627222        0.2789154351257392    
     1.960596040250810        0.2753567861764905    
     1.967994515874397        0.2718372847481504    
     1.975392991497986        0.2683566567881425    
     1.982791467121573        0.2649146245683962    
     1.990189942745161        0.2615109069388806    
     1.997588418368749        0.2581452195720731    
     2.004986893992337        0.2548172751986437    
     2.012385369615926        0.2515267838346205    
     2.019783845239513        0.2482734530002927    
     2.027182320863101        0.2450569879311148    
     2.034580796486689        0.2418770917808421    
     2.041979272110277        0.2387334658171542    
     2.049377747733865        0.2356258096099860    
     2.056776223357453        0.2325538212127959    
     2.064174698981041        0.2295171973369928    
     2.071573174604629        0.2265156335197339    
     2.078971650228217        0.2235488242852971    
     2.086370125851805        0.2206164633002348    
     2.093768601475393        0.2177182435225038    
     2.101167077098981        0.2148538573447515    
     2.108565552722569        0.2120229967319607    
     2.115964028346157        0.2092253533536149    
     2.123362503969745        0.2064606187105674    
     2.130760979593333        0.2037284842567804    
     2.138159455216921        0.2010286415160997    
     2.145557930840508        0.1983607821942207    
     2.152956406464097        0.1957245982860015    
     2.160354882087685        0.1931197821782782    
     2.167753357711272        0.1905460267483184    
     2.175151833334860        0.1880030254580596    
     2.182550308958449        0.1854904724442729    
     2.189948784582036        0.1830080626047793    
     2.197347260205624        0.1805554916808461    
     2.204745735829212        0.1781324563358958    
     2.212144211452800        0.1757386542306457    
     2.219542687076388        0.1733737840947911    
     2.226941162699976        0.1710375457953561    
     2.234339638323564        0.1687296404018114    
     2.241738113947152        0.1664497702480802    
     2.249136589570740        0.1641976389915208    
     2.256535065194328        0.1619729516690015    
     2.263933540817916        0.1597754147501567    
     2.271332016441504        0.1576047361879213    
     2.278730492065092        0.1554606254664414    
     2.286128967688680        0.1533427936464377    
     2.293527443312268        0.1512509534081239    
     2.300925918935856        0.1491848190917519    
     2.308324394559444        0.1471441067358714    
     2.315722870183031        0.1451285341133835    
     2.323121345806620        0.1431378207654564    
     2.330519821430208        0.1411716880333910    
     2.337918297053796        0.1392298590884959    
     2.345316772677383        0.1373120589600484    
     2.352715248300972        0.1354180145614076    
     2.360113723924560        0.1335474547143420    
     2.367512199548147        0.1317001101716397    
     2.374910675171735        0.1298757136380597    
     2.382309150795323        0.1280739997896841    
     2.389707626418911        0.1262947052917297    
     2.397106102042499        0.1245375688148740    
     2.404504577666087        0.1228023310501491    
     2.411903053289675        0.1210887347224595    
     2.419301528913263        0.1193965246027677    
     2.426700004536851        0.1177254475190044    
     2.434098480160439        0.1160752523657456    
     2.441496955784027        0.1144456901127050    
     2.448895431407615        0.1128365138120862    
     2.456293907031203        0.1112474786048353    
     2.463692382654791        0.1096783417258408    
     2.471090858278379        0.1081288625081164    
     2.478489333901967        0.1065988023860087    
     2.485887809525555        0.1050879248974668    
     2.493286285149143        0.1035959956854115    
     2.500684760772731        0.1021227824982376    
     2.508083236396319        0.1006680551894859    
     2.515481712019906        0.9923158571671667E-01
     2.522880187643495        0.9781314813961949E-01
     2.530278663267083        0.9641251861738602E-01
     2.537677138890670        0.9502947540538056E-01
     2.545075614514258        0.9366379885113441E-01
     2.552474090137846        0.9231527138969528E-01
     2.559872565761435        0.9098367753835522E-01
     2.567271041385022        0.8966880389078780E-01
     2.574669517008610        0.8837043911061558E-01
     2.582067992632198        0.8708837392443911E-01
     2.589466468255786        0.8582240111434168E-01
     2.596864943879374        0.8457231550990382E-01
     2.604263419502962        0.8333791397974279E-01
     2.611661895126550        0.8211899542259987E-01
     2.619060370750138        0.8091536075799899E-01
     2.626458846373726        0.7972681291649365E-01
     2.633857321997314        0.7855315682952511E-01
     2.641255797620902        0.7739419941890666E-01
     2.648654273244490        0.7624974958595662E-01
     2.656052748868078        0.7511961820029410E-01
     2.663451224491666        0.7400361808831712E-01
     2.670849700115254        0.7290156402137825E-01
     2.678248175738842        0.7181327270367421E-01
     2.685646651362430        0.7073856275986477E-01
     2.693045126986018        0.6967725472243533E-01
     2.700443602609606        0.6862917101881834E-01
     2.707842078233194        0.6759413595828799E-01
     2.715240553856781        0.6657197571863857E-01
     2.722639029480369        0.6556251833266366E-01
     2.730037505103958        0.6456559367444559E-01
     2.737435980727545        0.6358103344546845E-01
     2.744834456351133        0.6260867116056522E-01
     2.752232931974721        0.6164834213371329E-01
     2.759631407598309        0.6069988346368359E-01
     2.767029883221897        0.5976313401956052E-01
     2.774428358845485        0.5883793442613806E-01
     2.781826834469073        0.5792412704920144E-01
     2.789225310092661        0.5702155598070971E-01
     2.796623785716249        0.5613006702387915E-01
     2.804022261339837        0.5524950767818419E-01
     2.811420736963425        0.5437972712428141E-01
     2.818819212587013        0.5352057620886160E-01
     2.826217688210601        0.5267190742944280E-01
     2.833616163834189        0.5183357491911036E-01
     2.841014639457777        0.5100543443120684E-01
     2.848413115081365        0.5018734332398570E-01
     2.855811590704953        0.4937916054523109E-01
     2.863210066328541        0.4858074661684954E-01
     2.870608541952129        0.4779196361944390E-01
     2.878007017575717        0.4701267517687065E-01
     2.885405493199305        0.4624274644078974E-01
     2.892803968822893        0.4548204407521084E-01
     2.900202444446481        0.4473043624104178E-01
     2.907600920070069        0.4398779258064384E-01
     2.914999395693656        0.4325398420239954E-01
     2.922397871317244        0.4252888366529659E-01
     2.929796346940833        0.4181236496353272E-01
     2.937194822564420        0.4110430351114703E-01
     2.944593298188008        0.4040457612667913E-01
     2.951991773811596        0.3971306101786317E-01
     2.959390249435184        0.3902963776635780E-01
     2.966788725058772        0.3835418731251745E-01
     2.974187200682360        0.3768659194020842E-01
     2.981585676305948        0.3702673526167005E-01
     2.988984151929536        0.3637450220242910E-01
     2.996382627553124        0.3572977898626618E-01
     3.003781103176712        0.3509245312023825E-01
     3.011179578800300        0.3446241337976076E-01
     3.018578054423888        0.3383954979375128E-01
     3.025976530047476        0.3322375362983675E-01
     3.033375005671064        0.3261491737962715E-01
     3.040773481294652        0.3201293474405778E-01
     3.048171956918240        0.3141770061880204E-01
     3.055570432541828        0.3082911107975634E-01
     3.062968908165416        0.3024706336859946E-01
     3.070367383789004        0.2967145587842926E-01
     3.077765859412592        0.2910218813947449E-01
     3.085164335036179        0.2853916080488782E-01
     3.092562810659767        0.2798227563661969E-01
     3.099961286283356        0.2743143549137237E-01
     3.107359761906944        0.2688654430663933E-01
     3.114758237530531        0.2634750708682763E-01
     3.122156713154119        0.2581422988946639E-01
     3.129555188777708        0.2528661981150189E-01
     3.136953664401295        0.2476458497567946E-01
     3.144352140024883        0.2424803451701480E-01
     3.151750615648471        0.2373687856935269E-01
     3.159149091272059        0.2323102825201712E-01
     3.166547566895647        0.2273039565655052E-01
     3.173946042519235        0.2223489383354470E-01
     3.181344518142823        0.2174443677956255E-01
     3.188742993766411        0.2125893942415207E-01
     3.196141469389999        0.2077831761695243E-01
     3.203539945013587        0.2030248811489191E-01
     3.210938420637175        0.1983136856948052E-01
     3.218336896260763        0.1936487751419253E-01
     3.225735371884351        0.1890293435194529E-01
     3.233133847507939        0.1844545934266874E-01
     3.240532323131527        0.1799237359096969E-01
     3.247930798755115        0.1754359903388868E-01
     3.255329274378703        0.1709905842874962E-01
     3.262727750002290        0.1665867534110410E-01
     3.270126225625879        0.1622237413276627E-01
     3.277524701249467        0.1579007994994280E-01
     3.284923176873054        0.1536171871145374E-01
     3.292321652496642        0.1493721709704651E-01
     3.299720128120231        0.1451650253580167E-01
     3.307118603743818        0.1409950319462983E-01
     3.314517079367406        0.1368614796686127E-01
     3.321915554990994        0.1327636646092459E-01
     3.329314030614582        0.1287008898911769E-01
     3.336712506238170        0.1246724655646632E-01
     3.344110981861758        0.1206777084974357E-01
     3.351509457485346        0.1167159423966080E-01
     3.358907933108934        0.1127865011252364E-01
     3.366306408732522        0.1088887536552837E-01
     3.373704884356110        0.1050221817708766E-01
     3.381103359979698        0.1011865139176178E-01
     3.388501835603286        0.9738187787922188E-02
     3.395900311226874        0.9360892738855835E-02
     3.403298786850462        0.8986891674949059E-02
     3.410697262474050        0.8616371900865019E-02
     3.418095738097638        0.8249579629559099E-02
     3.425494213721226        0.7886813575635804E-02
     3.432892689344814        0.7528416432743369E-02
     3.440291164968402        0.7174765325997427E-02
     3.447689640591990        0.6826262046629015E-02
     3.455088116215578        0.6483323618788858E-02
     3.462486591839165        0.6146373543291983E-02
     3.469885067462754        0.5815833911378560E-02
     3.477283543086342        0.5492118475223723E-02
     3.484682018709929        0.5175626690728911E-02
     3.492080494333517        0.4866738702707519E-02
     3.499478969957105        0.4565811215328071E-02
     3.506877445580693        0.4273174175888529E-02
     3.514275921204281        0.3989128193463706E-02
     3.521674396827869        0.3713942612767528E-02
     3.529072872451457        0.3447854165636829E-02
     3.536471348075045        0.3191066126485882E-02
     3.543869823698633        0.2943747902943180E-02
     3.551268299322221        0.2706034998021894E-02
     3.558666774945809        0.2478029285140113E-02
     3.566065250569397        0.2259799541755426E-02
     3.573463726192985        0.2051382191006681E-02
     3.580862201816573        0.1852782203226847E-02
     3.588260677440161        0.1663974110036554E-02
     3.595659153063749        0.1484903082220539E-02
     3.603057628687337        0.1315486017478403E-02
     3.610456104310925        0.1155612573209065E-02
     3.617854579934513        0.1005146058595504E-02
     3.625253055558101        0.8639240613635287E-03
     3.632651531181688        0.7317586112036646E-03
     3.640050006805277        0.6084355380356891E-03
     3.647448482428865        0.4937123845295938E-03
     3.654846958052453        0.3873135600741895E-03
     3.662245433676040        0.2889197396868217E-03
     3.669643909299628        0.1981436200767793E-03
     3.677042384923217        0.1144671098699695E-03
     3.684440860546804        0.3701626387417389E-04
     3.691839336170392         0.000000000000000    
  0  5  1  0  2.000000   #orbital l, n, z, is_polarized, population
 500    0.1866978004394106E-01     9.316220241926587     # npts, delta, cutoff
     0.000000000000000        0.6808262965775255E-01
    0.1866978004394106E-01    0.6839120518341424E-01
    0.3733956008788211E-01    0.6931852088252330E-01
    0.5600934013182317E-01    0.7085802429887124E-01
    0.7467912017576422E-01    0.7300073434431503E-01
    0.9334890021970528E-01    0.7573418233972720E-01
    0.1120186802636463        0.7904251047237114E-01
    0.1306884603075874        0.8290659129441853E-01
    0.1493582403515284        0.8730416485248767E-01
    0.1680280203954695        0.9220999080617413E-01