<preamble>

<basis_specs>
===============================================================================
Zn                   Z=  30    Mass=  65.380        Charge= 0.17977+309
Lmxo=2 Lmxkb= 2    BasisType=split      Semic=T
L=0  Nsemic=1  Cnfigmx=4
          i=1  nzeta=1  polorb=0  (3s)  (semicore shell)
            splnorm:   0.15000    
               vcte:    40.000    
               rinn:    1.9481    
               qcoe:    0.0000    
               qyuk:    0.0000    
               qwid:   0.10000E-01
                rcs:    2.1646    
            lambdas:    1.0000    
          i=2  nzeta=2  polorb=0  (4s)  (to be polarized non-perturbatively)
            splnorm:   0.15000    
               vcte:    40.000    
               rinn:    5.2739    
               qcoe:    0.0000    
               qyuk:    0.0000    
               qwid:   0.10000E-01
                rcs:    5.8540      4.0283    
            lambdas:    1.0000      1.0000    
L=1  Nsemic=1  Cnfigmx=4
          i=1  nzeta=1  polorb=0  (3p)  (semicore shell)
            splnorm:   0.15000    
               vcte:    40.000    
               rinn:    2.1583    
               qcoe:    0.0000    
               qyuk:    0.0000    
               qwid:   0.10000E-01
                rcs:    2.3981    
            lambdas:    1.0000    
          i=2  nzeta=1  polorb=0  (4p)  (non-perturbative polarization shell)
            splnorm:   0.15000    
               vcte:    40.000    
               rinn:    5.2739    
               qcoe:    0.0000    
               qyuk:    0.0000    
               qwid:   0.10000E-01
                rcs:    5.8540    
            lambdas:    1.0000    
L=2  Nsemic=0  Cnfigmx=3
          i=1  nzeta=2  polorb=0  (3d)
            splnorm:   0.15000    
               vcte:    40.000    
               rinn:    3.4241    
               qcoe:    0.0000    
               qyuk:    0.0000    
               qwid:   0.10000E-01
                rcs:    3.8046      2.1996    
            lambdas:    1.0000      1.0000    
-------------------------------------------------------------------------------
L=0  Nkbl=2  erefs: 0.17977+309 0.17977+309
L=1  Nkbl=2  erefs: 0.17977+309 0.17977+309
L=2  Nkbl=1  erefs: 0.17977+309
===============================================================================
</basis_specs>

<pseudopotential_header>
 Zn pw nrl pcec
 ONCVPSP-3.2018-03-09Hamann's oncvpsp                        
 3s 2.00  r= 1.36/3p 6.00  r= 1.66/3d10.00  r= 1.85/                    3s:3p:3d:4s:
</pseudopotential_header>
</preamble>
Zn                            # Symbol
Zn                            # Label
   30                         # Atomic number
     20.0000000000                             # Valence charge
     65.3800000000        # Mass 
     477.871596680        # Self energy 
   2   7                      # Lmax for basis, no. of nl orbitals 
   2   6                      # Lmax for projectors, no. of nl KB projectors
# PAOs:__________________________
  0  3  1  0  2.000000   #orbital l, n, z, is_polarized, population
 500    0.4337810707612344E-02     2.164567543098559     # npts, delta, cutoff
     0.000000000000000         3.598281391118616    
    0.4337810707612344E-02     3.598051175124419    
    0.8675621415224688E-02     3.597719267430122    
    0.1301343212283703E-01     3.597166337837573    
    0.1735124283044938E-01     3.596392415484802    
    0.2168905353806172E-01     3.595397624102571    
    0.2602686424567406E-01     3.594182135901065    
    0.3036467495328641E-01     3.592746164955009    
    0.3470248566089875E-01     3.591089965520073    
    0.3904029636851109E-01     3.589213831439622    
    0.4337810707612344E-01     3.587118095873577    
    0.4771591778373578E-01     3.584803131139831    
    0.5205372849134812E-01     3.582269348598226    
    0.5639153919896047E-01     3.579517198550126    
    0.6072934990657281E-01     3.576547170141994    
    0.6506716061418516E-01     3.573359791267366    
    0.6940497132179750E-01     3.569955628464462    
    0.7374278202940984E-01     3.566335286807833    
    0.7808059273702218E-01     3.562499409793081    
    0.8241840344463454E-01     3.558448679214016    
    0.8675621415224688E-01     3.554183815031794    
    0.9109402485985922E-01     3.549705575235718    
    0.9543183556747156E-01     3.545014755695356    
    0.9976964627508390E-01     3.540112190003737    
    0.1041074569826962         3.534998749311370    
    0.1084452676903086         3.529675342150906    
    0.1127830783979209         3.524142914252138    
    0.1171208891055333         3.518402448347206    
    0.1214586998131456         3.512454963965765    
    0.1257965105207580         3.506301517219919    
    0.1301343212283703         3.499943200578734    
    0.1344721319359826         3.493381142632149    
    0.1388099426435950         3.486616507844077    
    0.1431477533512074         3.479650496294569    
    0.1474855640588197         3.472484343410826    
    0.1518233747664320         3.465119319686939    
    0.1561611854740444         3.457556730392208    
    0.1604989961816567         3.449797915267897    
    0.1648368068892691         3.441844248212286    
    0.1691746175968814         3.433697136953973    
    0.1735124283044938         3.425358022713254    
    0.1778502390121061         3.416828379851530    
    0.1821880497197184         3.408109715508717    
    0.1865258604273308         3.399203569228519    
    0.1908636711349431         3.390111512571625    
    0.1952014818425555         3.380835148716727    
    0.1995392925501678         3.371376112049429    
    0.2038771032577802         3.361736067739008    
    0.2082149139653925         3.351916711303110    
    0.2125527246730048         3.341919768160400    
    0.2168905353806172         3.331746993171254    
    0.2212283460882295         3.321400170166589    
    0.2255661567958419         3.310881111464948    
    0.2299039675034542         3.300191657377938    
    0.2342417782110666         3.289333675704221    
    0.2385795889186789         3.278309061212200    
    0.2429173996262912         3.267119735111593    
    0.2472552103339036         3.255767644514112    
    0.2515930210415159         3.244254761883463    
    0.2559308317491283         3.232583084474947    
    0.2602686424567406         3.220754633764884    
    0.2646064531643530         3.208771454870188    
    0.2689442638719653         3.196635615958355    
    0.2732820745795776         3.184349207648231    
    0.2776198852871900         3.171914342401845    
    0.2819576959948024         3.159333153907707    
    0.2862955067024147         3.146607796455910    
    0.2906333174100270         3.133740444305425    
    0.2949711281176394         3.120733291043988    
    0.2993089388252517         3.107588548940991    
    0.3036467495328641         3.094308448293806    
    0.3079845602404764         3.080895236767947    
    0.3123223709480887         3.067351178731534    
    0.3166601816557011         3.053678554584534    
    0.3209979923633134         3.039879660083182    
    0.3253358030709258         3.025956805660114    
    0.3296736137785382         3.011912315740628    
    0.3340114244861505         2.997748528055612    
    0.3383492351937628         2.983467792951564    
    0.3426870459013752         2.969072472698230    
    0.3470248566089875         2.954564940794342    
    0.3513626673165999         2.939947581271937    
    0.3557004780242122         2.925222787999733    
    0.3600382887318245         2.910392963986091    
    0.3643760994394369         2.895460520682006    
    0.3687139101470492         2.880427877284619    
    0.3730517208546616         2.865297460041747    
    0.3773895315622739         2.850071701557876    
    0.3817273422698862         2.834753040102079    
    0.3860651529774986         2.819343918918344    
    0.3904029636851110         2.803846785538737    
    0.3947407743927233         2.788264091100631    
    0.3990785851003356         2.772598296074503    
    0.4034163958079480         2.756851853098750    
    0.4077542065155603         2.741027217125773    
    0.4120920172231727         2.725126846959570    
    0.4164298279307850         2.709153201654260    
    0.4207676386383973         2.693108739858721    
    0.4251054493460097         2.676995919167205    
    0.4294432600536220         2.660817195476282    
    0.4337810707612344         2.644575022348419    
    0.4381188814688467         2.628271850382495    
    0.4424566921764591         2.611910126591542    
    0.4467945028840714         2.595492293787962    
    0.4511323135916838         2.579020789976468    
    0.4554701242992961         2.562498047754987    
    0.4598079350069084         2.545926493723736    
    0.4641457457145208         2.529308547902639    
    0.4684835564221331         2.512646623157297    
    0.4728213671297455         2.495943124633643    
    0.4771591778373578         2.479200449201424    
    0.4814969885449701         2.462420984906631    
    0.4858347992525825         2.445607110432995    
    0.4901726099601948         2.428761194572614    
    0.4945104206678072         2.411885595705786    
    0.4988482313754196         2.394982661290125    
    0.5031860420830319         2.378054727358952    
    0.5075238527906443         2.361104118029026    
    0.5118616634982566         2.344133145017588    
    0.5161994742058689         2.327144107168746    
    0.5205372849134813         2.310139289989132    
    0.5248750956210936         2.293120965192844    
    0.5292129063287060         2.276091390255588    
    0.5335507170363183         2.259052807977989    
    0.5378885277439306         2.242007446057980    
    0.5422263384515430         2.224957516672205    
    0.5465641491591553         2.207905216066328    
    0.5509019598667677         2.190852724154178    
    0.5552397705743800         2.173802204125594    
    0.5595775812819923         2.156755802062887    
    0.5639153919896047         2.139715646565764    
    0.5682532026972170         2.122683848384650    
    0.5725910134048294         2.105662500062203    
    0.5769288241124417         2.088653675582980    
    0.5812666348200540         2.071659430031035    
    0.5856044455276664         2.054681799255396    
    0.5899422562352787         2.037722799543219    
    0.5942800669428911         2.020784427300538    
    0.5986178776505034         2.003868658740452    
    0.6029556883581157         1.986977449578619    
    0.6072934990657282         1.970112734735942    
    0.6116313097733405         1.953276428048323    
    0.6159691204809529         1.936470421983358    
    0.6203069311885652         1.919696587363860    
    0.6246447418961775         1.902956773098111    
    0.6289825526037899         1.886252805916735    
    0.6333203633114022         1.869586490116109    
    0.6376581740190146         1.852959607308194    
    0.6419959847266269         1.836373916176761    
    0.6463337954342392         1.819831152239880    
    0.6506716061418516         1.803333027618665    
    0.6550094168494639         1.786881230812198    
    0.6593472275570763         1.770477426478577    
    0.6636850382646886         1.754123255222094    
    0.6680228489723009         1.737820333386481    
    0.6723606596799133         1.721570252854243    
    0.6766984703875256         1.705374580852065    
    0.6810362810951380         1.689234859762285    
    0.6853740918027503         1.673152606940491    
    0.6897119025103626         1.657129314539235    
    0.6940497132179750         1.641166449337920    
    0.6983875239255873         1.625265452578922    
    0.7027253346331997         1.609427739809968    
    0.7070631453408120         1.593654700732892    
    0.7114009560484243         1.577947699058797    
    0.7157387667560368         1.562308072369747    
    0.7200765774636491         1.546737131987067    
    0.7244143881712615         1.531236162846344    
    0.7287521988788738         1.515806423379275    
    0.7330900095864861         1.500449145402438    
    0.7374278202940985         1.485165534013138    
    0.7417656310017108         1.469956767492443    
    0.7461034417093232         1.454823997215551    
    0.7504412524169355         1.439768347569623    
    0.7547790631245478         1.424790915879224    
    0.7591168738321602         1.409892772339514    
    0.7634546845397725         1.395074959957341    
    0.7677924952473849         1.380338494500381    
    0.7721303059549972         1.365684364454466    
    0.7764681166626095         1.351113530989266    
    0.7808059273702219         1.336626927932447    
    0.7851437380778342         1.322225461752467    
    0.7894815487854466         1.307910011550139    
    0.7938193594930589         1.293681429059121    
    0.7981571702006712         1.279540538655427    
    0.8024949809082836         1.265488137376130    
    0.8068327916158959         1.251524994947347    
    0.8111706023235083         1.237651853821630    
    0.8155084130311206         1.223869429224878    
    0.8198462237387329         1.210178409212862    
    0.8241840344463454         1.196579454737437    
    0.8285218451539577         1.183073199722557    
    0.8328596558615700         1.169660251150124    
    0.8371974665691824         1.156341189155742    
    0.8415352772767947         1.143116567134434    
    0.8458730879844071         1.129986911856345    
    0.8502108986920194         1.116952723592435    
    0.8545487093996317         1.104014476250206    
    0.8588865201072441         1.091172617519422    
    0.8632243308148564         1.078427569027821    
    0.8675621415224688         1.065779726506779    
    0.8718999522300811         1.053229459966864    
    0.8762377629376934         1.040777113883244    
    0.8805755736453058         1.028423007390830    
    0.8849133843529181         1.016167434489097    
    0.8892511950605305         1.004010664256431    
    0.8935890057681428        0.9919529410739232    
    0.8979268164757551        0.9799944848584163    
    0.9022646271833675        0.9681354913046994    
    0.9066024378909798        0.9563761321366286    
    0.9109402485985922        0.9447165553670196    
    0.9152780593062045        0.9331568855660959    
    0.9196158700138168        0.9216972241382728    
    0.9239536807214292        0.9103376496070601    
    0.9282914914290415        0.8990782179078136    
    0.9326293021366540        0.8879189626881009    
    0.9369671128442663        0.8768598956153912    
    0.9413049235518786        0.8659010066917981    
    0.9456427342594910        0.8550422645755679    
    0.9499805449671033        0.8442836169090070    
    0.9543183556747157        0.8336249906525468    
    0.9586561663823280        0.8230662924245867    
    0.9629939770899403        0.8126074088468035    
    0.9673317877975527        0.8022482068945713    
    0.9716695985051650        0.7919885342521410    
    0.9760074092127774        0.7818282196722048    
    0.9803452199203897        0.7717670733394997    
    0.9846830306280020        0.7618048872380668    
    0.9890208413356144        0.7519414355217768    
    0.9933586520432267        0.7421764748877725    
    0.9976964627508391        0.7325097449524111    
     1.002034273458452        0.7229409686293351    
     1.006372084166064        0.7134698525093044    
     1.010709894873676        0.7040960872413582    
     1.015047705581289        0.6948193479149698    
     1.019385516288901        0.6856392944427840    
     1.023723326996513        0.6765555719435495    
     1.028061137704126        0.6675678111248985    
     1.032398948411738        0.6586756286655671    
     1.036736759119350        0.6498786275967094    
     1.041074569826963        0.6411763976819443    
     1.045412380534575        0.6325685157957516    
     1.049750191242187        0.6240545462999193    
     1.054088001949800        0.6156340414176462    
     1.058425812657412        0.6073065416050213    
     1.062763623365024        0.5990715759195179    
     1.067101434072637        0.5909286623852212    
     1.071439244780249        0.5828773083544703    
     1.075777055487861        0.5749170108656443    
     1.080114866195474        0.5670472569967999    
     1.084452676903086        0.5592675242149123    
     1.088790487610698        0.5515772807204568    
     1.093128298318311        0.5439759857871098    
     1.097466109025923        0.5364630900963235    
     1.101803919733535        0.5290380360665985    
     1.106141730441148        0.5217002581772220    
     1.110479541148760        0.5144491832863290    
     1.114817351856372        0.5072842309430928    
     1.119155162563985        0.5002048136939129    
     1.123492973271597        0.4932103373824559    
     1.127830783979209        0.4863002014434400    
     1.132168594686822        0.4794737991900452    
     1.136506405394434        0.4727305180948671    
     1.140844216102046        0.4660697400643476    
     1.145182026809659        0.4594908417065983    
     1.149519837517271        0.4529931945926050    
     1.153857648224883        0.4465761655107425    
     1.158195458932496        0.4402391167146271    
     1.162533269640108        0.4339814061642591    
     1.166871080347720        0.4278023877604948    
     1.171208891055333        0.4217014115728663    
     1.175546701762945        0.4156778240607653    
     1.179884512470557        0.4097309682880668    
     1.184222323178170        0.4038601841312289    
     1.188560133885782        0.3980648084809454    
     1.192897944593394        0.3923441754374376    
     1.197235755301007        0.3866976164994672    
     1.201573566008619        0.3811244607471690    
     1.205911376716231        0.3756240350188271    
     1.210249187423844        0.3701956640816805    
     1.214586998131456        0.3648386707969194    
     1.218924808839069        0.3595523762789709    
     1.223262619546681        0.3543361000492266    
     1.227600430254293        0.3491891601843526    
     1.231938240961906        0.3441108734593266    
     1.236276051669518        0.3391005554853522    
     1.240613862377130        0.3341575208428044    
     1.244951673084743        0.3292810832093745    
     1.249289483792355        0.3244705554835538    
     1.253627294499967        0.3197252499036324    
     1.257965105207580        0.3150444781623788    
     1.262302915915192        0.3104275515175454    
     1.266640726622804        0.3058737808983744    
     1.270978537330417        0.3013824770082645    
     1.275316348038029        0.2969529504237585    
     1.279654158745641        0.2925845116900023    
     1.283991969453254        0.2882764714128375    
     1.288329780160866        0.2840281403476841    
     1.292667590868478        0.2798388294853557    
     1.297005401576091        0.2757078501349449    
     1.301343212283703        0.2716345140039452    
     1.305681022991315        0.2676181332757215    
     1.310018833698928        0.2636580206844563    
     1.314356644406540        0.2597534895760417    
     1.318694455114153        0.2559038539336921    
     1.323032265821765        0.2521084285313974    
     1.327370076529377        0.2483665290546659    
     1.331707887236990        0.2446774722784881    
     1.336045697944602        0.2410405761018063    
     1.340383508652214        0.2374551591231579    
     1.344721319359827        0.2339205404923084    
     1.349059130067439        0.2304360398036376    
     1.353396940775051        0.2270009777582191    
     1.357734751482664        0.2236146773684846    
     1.362072562190276        0.2202764651468934    
     1.366410372897888        0.2169856722020358    
     1.370748183605501        0.2137416356261812    
     1.375085994313113        0.2105436995152610    
     1.379423805020725        0.2073912158228690    
     1.383761615728338        0.2042835449887990    
     1.388099426435950        0.2012200558289119    
     1.392437237143562        0.1982001253487476    
     1.396775047851175        0.1952231383884636    
     1.401112858558787        0.1922884873494723    
     1.405450669266399        0.1893955722454458    
     1.409788479974012        0.1865438006546467    
     1.414126290681624        0.1837325877021305    
     1.418464101389237        0.1809613560040679    
     1.422801912096849        0.1782295355632559    
     1.427139722804461        0.1755365636937964    
     1.431477533512074        0.1728818849487165    
     1.435815344219686        0.1702649510459179    
     1.440153154927298        0.1676852207930526    
     1.444490965634911        0.1651421600131908    
     1.448828776342523        0.1626352414705448    
     1.453166587050135        0.1601639447962619    
     1.457504397757748        0.1577277564143218    
     1.461842208465360        0.1553261694675643    
     1.466180019172972        0.1529586837438807    
     1.470517829880585        0.1506248056025972    
     1.474855640588197        0.1483240479010678    
     1.479193451295809        0.1460559299215168    
     1.483531262003422        0.1438199772981390    
     1.487869072711034        0.1416157219444902    
     1.492206883418646        0.1394427019811847    
     1.496544694126259        0.1373004616639208    
     1.500882504833871        0.1351885513118561    
     1.505220315541483        0.1331065272363413    
     1.509558126249096        0.1310539516700422    
     1.513895936956708        0.1290303926964556    
     1.518233747664320        0.1270354241798383    
     1.522571558371933        0.1250686256955619    
     1.526909369079545        0.1231295824609070    
     1.531247179787157        0.1212178852663098    
     1.535584990494770        0.1193331304070703    
     1.539922801202382        0.1174749196155348    
     1.544260611909994        0.1156428599937618    
     1.548598422617607        0.1138365639466809    
     1.552936233325219        0.1120556491157531    
     1.557274044032831        0.1102997383131379    
     1.561611854740444        0.1085684594563825    
     1.565949665448056        0.1068614455036265    
     1.570287476155668        0.1051783343893412    
     1.574625286863281        0.1035187689606036    
     1.578963097570893        0.1018823969139054    
     1.583300908278505        0.1002688707325104    
     1.587638718986118        0.9867784762436033E-01
     1.591976529693730        0.9710898946052793E-01
     1.596314340401342        0.9556196271422963E-01
     1.600652151108955        0.9403643840039445E-01
     1.604989961816567        0.9253209201578969E-01
     1.609327772524179        0.9104860347971268E-01
     1.613665583231792        0.8958565707524303E-01
     1.618003393939404        0.8814294139105948E-01
     1.622341204647017        0.8672014926382181E-01
     1.626679015354629        0.8531697772112085E-01
     1.631016826062241        0.8393312792498954E-01
     1.635354636769854        0.8256830511598386E-01
     1.639692447477466        0.8122221855782903E-01
     1.644030258185078        0.7989458148262635E-01
     1.648368068892691        0.7858511103662832E-01
     1.652705879600303        0.7729352822657627E-01
     1.657043690307915        0.7601955786659467E-01
     1.661381501015528        0.7476292852565038E-01
     1.665719311723140        0.7352337247556882E-01
     1.670057122430752        0.7230062563960223E-01
     1.674394933138365        0.7109442754155759E-01
     1.678732743845977        0.6990452125547109E-01
     1.683070554553589        0.6873065335583385E-01
     1.687408365261202        0.6757257386836472E-01
     1.691746175968814        0.6643003622132332E-01
     1.696083986676426        0.6530279719736602E-01
     1.700421797384039        0.6419061688593922E-01
     1.704759608091651        0.6309325863620446E-01
     1.709097418799263        0.6201048901049749E-01
     1.713435229506876        0.6094207773831203E-01
     1.717773040214488        0.5988779767080823E-01
     1.722110850922101        0.5884742473584133E-01
     1.726448661629713        0.5782073789350560E-01
     1.730786472337325        0.5680751909219194E-01
     1.735124283044938        0.5580755322515291E-01
     1.739462093752550        0.5482062808757253E-01
     1.743799904460162        0.5384653433413685E-01
     1.748137715167775        0.5288506543710027E-01
     1.752475525875387        0.5193601764484342E-01
     1.756813336582999        0.5099918994092090E-01
     1.761151147290612        0.5007438400358914E-01
     1.765488957998224        0.4916140416581619E-01
     1.769826768705836        0.4826005737576557E-01
     1.774164579413449        0.4737015315774847E-01
     1.778502390121061        0.4649150357364480E-01
     1.782840200828673        0.4562392318478307E-01
     1.787178011536286        0.4476722901427788E-01
     1.791515822243898        0.4392124050981981E-01
     1.795853632951510        0.4308577950691229E-01
     1.800191443659123        0.4226067019255202E-01
     1.804529254366735        0.4144573906934696E-01
     1.808867065074347        0.4064081492006861E-01
     1.813204875781960        0.3984572877263428E-01
     1.817542686489572        0.3906031386551134E-01
     1.821880497197184        0.3828440561354395E-01
     1.826218307904797        0.3751784157419260E-01
     1.830556118612409        0.3676046141418567E-01
     1.834893929320021        0.3601210687657640E-01
     1.839231740027634        0.3527262174820069E-01
     1.843569550735246        0.3454185182753153E-01
     1.847907361442858        0.3381964489292438E-01
     1.852245172150471        0.3310585067125125E-01
     1.856582982858083        0.3240032080691665E-01
     1.860920793565696        0.3170290883125139E-01
     1.865258604273308        0.3101347013228034E-01
     1.869596414980920        0.3033186192485794E-01
     1.873934225688533        0.2965794322116886E-01
     1.878272036396145        0.2899157480158691E-01
     1.882609847103757        0.2833261918588992E-01
     1.886947657811370        0.2768094060482512E-01
     1.891285468518982        0.2703640497202028E-01
     1.895623279226594        0.2639887985623645E-01
     1.899961089934207        0.2576823445395792E-01
     1.904298900641819        0.2514433956231522E-01
     1.908636711349431        0.2452706755233510E-01
     1.912974522057044        0.2391629234251653E-01
     1.917312332764656        0.2331188937272238E-01
     1.921650143472268        0.2271373557839090E-01
     1.925987954179881        0.2212170936505447E-01
     1.930325764887493        0.2153569058316669E-01
     1.934663575595105        0.2095556050323098E-01
     1.939001386302718        0.2038120179122689E-01
     1.943339197010330        0.1981249848433206E-01
     1.947677007717942        0.1924933596693062E-01
     1.952014818425555        0.1869160094691054E-01
     1.956352629133167        0.1813918143223885E-01
     1.960690439840779        0.1759196670787457E-01
     1.965028250548392        0.1704984732415919E-01
     1.969366061256004        0.1651271536783503E-01
     1.973703871963616        0.1598046659408694E-01
     1.978041682671229        0.1545300712006485E-01
     1.982379493378841        0.1493026503528861E-01
     1.986717304086453        0.1441220378188558E-01
     1.991055114794066        0.1389883346180699E-01
     1.995392925501678        0.1339021781433506E-01
     1.999730736209290        0.1288647643059561E-01
     2.004068546916903        0.1238778289430449E-01
     2.008406357624515        0.1189435995915370E-01
     2.012744168332127        0.1140647286849234E-01
     2.017081979039740        0.1092442173179247E-01
     2.021419789747352        0.1044853363629057E-01
     2.025757600454964        0.9979154957046928E-02
     2.030095411162577        0.9516644156813386E-02
     2.034433221870189        0.9061365240024393E-02
     2.038771032577801        0.8613681936314243E-02
     2.043108843285414        0.8173952629608664E-02
     2.047446653993026        0.7742526011164192E-02
     2.051784464700638        0.7319737412478045E-02
     2.056122275408251        0.6905905761937992E-02
     2.060460086115863        0.6501331103856011E-02
     2.064797896823475        0.6106292617663714E-02
     2.069135707531088        0.5721047076780666E-02
     2.073473518238700        0.5345827689834561E-02
     2.077811328946312        0.4980843270688088E-02
     2.082149139653925        0.4626277687563114E-02
     2.086486950361537        0.4282289545024049E-02
     2.090824761069150        0.3949012055362824E-02
     2.095162571776762        0.3626553057665014E-02
     2.099500382484374        0.3314995143099853E-02
     2.103838193191987        0.3014395843139468E-02
     2.108176003899599        0.2724787832443631E-02
     2.112513814607211        0.2446179088311096E-02
     2.116851625314824        0.2178552930793306E-02
     2.121189436022436        0.1921867836062965E-02
     2.125527246730048        0.1676056859358910E-02
     2.129865057437661        0.1441026400248028E-02
     2.134202868145273        0.1216653843219531E-02
     2.138540678852885        0.1002783196615574E-02
     2.142878489560498        0.7992169393727552E-03
     2.147216300268110        0.6057000172043145E-03
     2.151554110975722        0.4218853983282073E-03
     2.155891921683335        0.2472464624500619E-03
     2.160229732390947        0.8077506837807649E-04
     2.164567543098559         0.000000000000000    
  0  4  1  0  2.000000   #orbital l, n, z, is_polarized, population
 500    0.1173143765342037E-01     5.853987389056766     # npts, delta, cutoff
     0.000000000000000         1.872562507028275    
    0.1173143765342037E-01     1.871702499381651    
    0.2346287530684074E-01     1.869310902727209    