<preamble>

<basis_specs>
===============================================================================
Al                   Z=  13    Mass=  26.980        Charge= 0.17977+309
Lmxo=2 Lmxkb= 2    BasisType=split      Semic=F
L=0  Nsemic=0  Cnfigmx=3
          i=1  nzeta=2  polorb=0  (3s)
            splnorm:   0.15000    
               vcte:    40.000    
               rinn:    5.8764    
               qcoe:    0.0000    
               qyuk:    0.0000    
               qwid:   0.10000E-01
                rcs:    6.5228      4.5936    
            lambdas:    1.0000      1.0000    
L=1  Nsemic=0  Cnfigmx=3
          i=1  nzeta=2  polorb=1  (3p)  (to be polarized perturbatively)
            splnorm:   0.15000    
               vcte:    40.000    
               rinn:    7.7083    
               qcoe:    0.0000    
               qyuk:    0.0000    
               qwid:   0.10000E-01
                rcs:    8.5648      6.1670    
            lambdas:    1.0000      1.0000    
L=2  Nsemic=0  Cnfigmx=3
          i=1  nzeta=0  polorb=0  (3d)  (perturbative polarization orbital) (from 3p)
-------------------------------------------------------------------------------
L=0  Nkbl=1  erefs: 0.17977+309
L=1  Nkbl=1  erefs: 0.17977+309
L=2  Nkbl=1  erefs: 0.17977+309
===============================================================================
</basis_specs>

<pseudopotential_header>
 Al pw nrl pcec
 ONCVPSP-3.2018-03-09Hamann's oncvpsp                        
 3s 2.00  r= 1.77/3p 1.00  r= 1.77/3d 0.00  r= 1.71/                    3s:3p:
</pseudopotential_header>
</preamble>
Al                            # Symbol
Al                            # Label
   13                         # Atomic number
     3.00000000000                             # Valence charge
     26.9800000000        # Mass 
     14.7525626218        # Self energy 
   2   5                      # Lmax for basis, no. of nl orbitals 
   2   6                      # Lmax for projectors, no. of nl KB projectors
# PAOs:__________________________
  0  3  1  0  2.000000   #orbital l, n, z, is_polarized, population
 500    0.1307166719389452E-01     6.522761929753366     # npts, delta, cutoff
     0.000000000000000        0.1235838410733014    
    0.1307166719389452E-01    0.1236273432715016    
    0.2614333438778904E-01    0.1237597194296478    
    0.3921500158168356E-01    0.1239804067972470    
    0.5228666877557808E-01    0.1242894926379462    
    0.6535833596947260E-01    0.1246870937127614    
    0.7843000316336712E-01    0.1251733507764776    
    0.9150167035726164E-01    0.1257484217675917    
    0.1045733375511562        0.1264124737599203    
    0.1176450047450507        0.1271656738196266    
    0.1307166719389452        0.1280081789368443    
    0.1437883391328397        0.1289401252188782    
    0.1568600063267342        0.1299616165454001    
    0.1699316735206288        0.1310727128954404    
    0.1830033407145233        0.1322734185612294    
    0.1960750079084178        0.1335636704650449    
    0.2091466751023123        0.1349433267921314    
    0.2222183422962068        0.1364121561455928    
    0.2352900094901014        0.1379698274180568    
    0.2483616766839959        0.1396159005601210    
    0.2614333438778904        0.1413498184074037    
    0.2745050110717849        0.1431708997068467    
    0.2875766782656795        0.1450783334591495    
    0.3006483454595740        0.1470711746683784    
    0.3137200126534685        0.1491483415623718    
    0.3267916798473630        0.1513086143191632    
    0.3398633470412575        0.1535506353057749    
    0.3529350142351521        0.1558729108070416    
    0.3660066814290466        0.1582738141941227    
    0.3790783486229411        0.1607515904556496    
    0.3921500158168356        0.1633043619895406    
    0.4052216830107301        0.1659301355308888    
    0.4182933502046247        0.1686268100714430    
    0.4313650173985192        0.1713921856094234    
    0.4444366845924137        0.1742239725550748    
    0.4575083517863082        0.1771198016076976    
    0.4705800189802027        0.1800772339140938    
    0.4836516861740973        0.1830937713164896    
    0.4967233533679918        0.1861668665000951    
    0.5097950205618863        0.1892939328564222    
    0.5228666877557808        0.1924723538881919    
    0.5359383549496753        0.1956994919948716    
    0.5490100221435699        0.1989726964943109    
    0.5620816893374644        0.2022893107552178    
    0.5751533565313589        0.2056466783369368    
    0.5882250237252534        0.2090421480566642    
    0.6012966909191479        0.2124730779293945    
    0.6143683581130425        0.2159368379519652    
    0.6274400253069370        0.2194308117290485    
    0.6405116925008315        0.2229523969652326    
    0.6535833596947260        0.2264990048729278    
    0.6666550268886205        0.2300680585701749    
    0.6797266940825151        0.2336569905650263    
    0.6927983612764096        0.2372632394435508    
    0.7058700284703041        0.2408842458962683    
    0.7189416956641986        0.2445174482325795    
    0.7320133628580932        0.2481602775442286    
    0.7450850300519877        0.2518101526868063    
    0.7581566972458822        0.2554644752525701    
    0.7712283644397767        0.2591206247084317    
    0.7843000316336712        0.2627759538697173    
    0.7973716988275658        0.2664277848734762    
    0.8104433660214603        0.2700734058046820    
    0.8235150332153548        0.2737100681150191    
    0.8365867004092493        0.2773349849572624    
    0.8496583676031438        0.2809453305389336    
    0.8627300347970384        0.2845382405773770    
    0.8758017019909329        0.2881108139150622    
    0.8888733691848274        0.2916601153292867    
    0.9019450363787219        0.2951831795450781    
    0.9150167035726164        0.2986770164344136    
    0.9280883707665110        0.3021386173595392    
    0.9411600379604055        0.3055649625935940    
    0.9542317051543000        0.3089530297285257    
    0.9673033723481945        0.3122998029588299    
    0.9803750395420890        0.3156022831104403    
    0.9934467067359836        0.3188574982675356    
     1.006518373929878        0.3220625148364070    
     1.019590041123773        0.3252144488751792    
     1.032661708317667        0.3283104775112761    
     1.045733375511562        0.3313478502651994    
     1.058805042705456        0.3343239000995474    
     1.071876709899351        0.3372360540161830    
     1.084948377093245        0.3400818430320185    
     1.098020044287140        0.3428589113748320    
     1.111091711481034        0.3455650247546727    
     1.124163378674929        0.3481980775834085    
     1.137235045868823        0.3507560990345340    
     1.150306713062718        0.3532372578570276    
     1.163378380256612        0.3556398658804202    
     1.176450047450507        0.3579623801728309    
     1.189521714644401        0.3602034038390389    
     1.202593381838296        0.3623616854711533    
     1.215665049032190        0.3644361172896679    
     1.228736716226085        0.3664257320370680    
     1.241808383419980        0.3683296987092446    
     1.254880050613874        0.3701473172312958    
     1.267951717807768        0.3718780122034405    
     1.281023385001663        0.3735213258593408    
     1.294095052195558        0.3750769103928276    
     1.307166719389452        0.3765445198195724    
     1.320238386583346        0.3779240015474398    
     1.333310053777241        0.3792152878329782    
     1.346381720971136        0.3804183873016909    
     1.359453388165030        0.3815333767063734    
     1.372525055358925        0.3825603930910256    
     1.385596722552819        0.3834996265177585    
     1.398668389746714        0.3843513135009503    
     1.411740056940608        0.3851157312769735    
     1.424811724134503        0.3857931930193528    
     1.437883391328397        0.3863840440887590    
     1.450955058522292        0.3868886593850211    
     1.464026725716186        0.3873074418449884    
     1.477098392910081        0.3876408221059348    
     1.490170060103975        0.3878892593298057    
     1.503241727297870        0.3880532431594718    
     1.516313394491764        0.3881332967546989    
     1.529385061685659        0.3881299808332658    
     1.542456728879553        0.3880438986220121    
     1.555528396073448        0.3878757016039296    
     1.568600063267342        0.3876260959311125    
     1.581671730461237        0.3872958493597645    
     1.594743397655132        0.3868857985527630    
     1.607815064849026        0.3863968565876877    
     1.620886732042921        0.3858300205038757    
     1.633958399236815        0.3851863787210329    
     1.647030066430710        0.3844671181641804    
     1.660101733624604        0.3836735309351976    
     1.673173400818499        0.3828070203798160    
     1.686245068012393        0.3818691064103713    
     1.699316735206288        0.3808614299587620    
     1.712388402400182        0.3797857564704109    
     1.725460069594077        0.3786439785940489    
     1.738531736787971        0.3774381159571270    
     1.751603403981866        0.3761703154604314    
     1.764675071175760        0.3748428606355049    
     1.777746738369655        0.3734581487235230    
     1.790818405563549        0.3720186202577112    
     1.803890072757444        0.3705266822693231    
     1.816961739951338        0.3689846613371962    
     1.830033407145233        0.3673948064825838    
     1.843105074339127        0.3657592997621765    
     1.856176741533022        0.3640802557140098    
     1.869248408726917        0.3623597228156100    
     1.882320075920811        0.3605996856981578    
     1.895391743114705        0.3588020670151470    
     1.908463410308600        0.3569687292508901    
     1.921535077502495        0.3551014764726425    
     1.934606744696389        0.3532020560280318    
     1.947678411890283        0.3512721601897854    
     1.960750079084178        0.3493134277496759    
     1.973821746278073        0.3473274455635290    
     1.986893413471967        0.3453157500490732    
     1.999965080665862        0.3432798286383341    
     2.013036747859756        0.3412211211862160    
     2.026108415053651        0.3391410213368309    
     2.039180082247545        0.3370408778490872    
     2.052251749441440        0.3349219958829715    
     2.065323416635334        0.3327856382479042    
     2.078395083829229        0.3306330266144857    
     2.091466751023123        0.3284653426908963    
     2.104538418217018        0.3262837293651543    
     2.117610085410912        0.3240892918143911    
     2.130681752604807        0.3218830985822408    
     2.143753419798701        0.3196661826254127    
     2.156825086992596        0.3174395423304453    
     2.169896754186491        0.3152041425016234    
     2.182968421380385        0.3129609153209777    
     2.196040088574279        0.3107107612812630    
     2.209111755768174        0.3084545500927595    
     2.222183422962068        0.3061931215647244    
     2.235255090155963        0.3039272864622702    
     2.248326757349858        0.3016578273394291    
     2.261398424543752        0.2993854993491207    
     2.274470091737647        0.2971110310307236    
     2.287541758931541        0.2948351250759171    
     2.300613426125436        0.2925584590734348    
     2.313685093319330        0.2902816862333500    
     2.326756760513224        0.2880054360914910    
     2.339828427707119        0.2857303151945563    
     2.352900094901014        0.2834569077664869    
     2.365971762094908        0.2811857763566292    
     2.379043429288803        0.2789174624702039    
     2.392115096482697        0.2766524871815770    
     2.405186763676592        0.2743913517308181    
     2.418258430870486        0.2721345381040061    
     2.431330098064381        0.2698825095977357    
     2.444401765258275        0.2676357113682598    
     2.457473432452170        0.2653945709656841    
     2.470545099646064        0.2631594988536292    
     2.483616766839959        0.2609308889147497    
     2.496688434033854        0.2587091189424957    
     2.509760101227748        0.2564945511194876    
     2.522831768421642        0.2542875324828638    
     2.535903435615537        0.2520883953769540    
     2.548975102809432        0.2498974578936098    
     2.562046770003326        0.2477150243005328    
     2.575118437197220        0.2455413854579098    
     2.588190104391115        0.2433768192236718    
     2.601261771585010        0.2412215908476772    
     2.614333438778904        0.2390759533551122    
     2.627405105972799        0.2369401479193953    
     2.640476773166693        0.2348144042248599    
     2.653548440360588        0.2326989408194896    
     2.666620107554482        0.2305939654579647    
     2.679691774748377        0.2284996754352770    
     2.692763441942271        0.2264162579111616    
     2.705835109136166        0.2243438902255870    
     2.718906776330060        0.2222827402055396    
     2.731978443523955        0.2202329664633300    
     2.745050110717849        0.2181947186866471    
     2.758121777911744        0.2161681379205751    
     2.771193445105638        0.2141533568417857    
     2.784265112299533        0.2121505000251119    
     2.797336779493428        0.2101596842027033    
     2.810408446687322        0.2081810185159598    
     2.823480113881216        0.2062146047604321    
     2.836551781075111        0.2042605376238771    
     2.849623448269005        0.2023189049176465    
     2.862695115462900        0.2003897878015865    
     2.875766782656795        0.1984732610026194    
     2.888838449850689        0.1965693930271742    
     2.901910117044584        0.1946782463676287    
     2.914981784238478        0.1927998777029241    
     2.928053451432373        0.1909343380935038    
     2.941125118626267        0.1890816731707277    
     2.954196785820161        0.1872419233209106    
     2.967268453014056        0.1854151238641269    
     2.980340120207951        0.1836013052279198    
     2.993411787401845        0.1818004931160512    
     3.006483454595740        0.1800127086724279    
     3.019555121789634        0.1782379686403270    
     3.032626788983529        0.1764762855170525    
     3.045698456177423        0.1747276677041412    
     3.058770123371318        0.1729921196532377    
     3.071841790565212        0.1712696420077588    
     3.084913457759107        0.1695602317404546    
     3.097985124953001        0.1678638822869794    
     3.111056792146896        0.1661805836755830    
     3.124128459340791        0.1645103226530201    
     3.137200126534685        0.1628530828067874    
     3.150271793728579        0.1612088446837813    
     3.163343460922474        0.1595775859054783    
     3.176415128116369        0.1579592812797289    
     3.189486795310263        0.1563539029092574    
     3.202558462504157        0.1547614202969599    
     3.215630129698052        0.1531818004480826    
     3.228701796891947        0.1516150079693714    
     3.241773464085841        0.1500610051652694    
     3.254845131279736        0.1485197521312471    
     3.267916798473630        0.1469912068443429    
     3.280988465667525        0.1454753252509886    
     3.294060132861419        0.1439720613521955    
     3.307131800055314        0.1424813672861752    
     3.320203467249208        0.1410031934084605    
     3.333275134443103        0.1395374883696024    
     3.346346801636997        0.1380841991905026    
     3.359418468830892        0.1366432713354535    
     3.372490136024786        0.1352146487829424    
     3.385561803218681        0.1337982740942879    
     3.398633470412575        0.1323940884801636    
     3.411705137606470        0.1310020318650711    
     3.424776804800365        0.1296220429498166    
     3.437848471994259        0.1282540592720490    
     3.450920139188153        0.1268980172649110    
     3.463991806382048        0.1255538523138582    
     3.477063473575942        0.1242214988116952    
     3.490135140769837        0.1229008902118796    
     3.503206807963732        0.1215919590801424    
     3.516278475157626        0.1202946371444722    
     3.529350142351521        0.1190088553435059    
     3.542421809545415        0.1177345438733777    
     3.555493476739310        0.1164716322330612    
     3.568565143933204        0.1152200492682531    
     3.581636811127098        0.1139797232138381    
     3.594708478320993        0.1127505817349731    
     3.607780145514888        0.1115325519668323    
     3.620851812708782        0.1103255605530499    
     3.633923479902677        0.1091295336828965    
     3.646995147096571        0.1079443971272281    
     3.660066814290466        0.1067700762732376    
     3.673138481484360        0.1056064961580484    
     3.686210148678255        0.1044535815011799    
     3.699281815872149        0.1033112567359162    
     3.712353483066044        0.1021794460396126    
     3.725425150259938        0.1010580733629685    
     3.738496817453833        0.9994706245829495E-01
     3.751568484647728        0.9884633690680818E-01
     3.764640151841622        0.9775582014497702E-01
     3.777711819035516        0.9667543548994775E-01
     3.790783486229411        0.9560510616407845E-01
     3.803855153423306        0.9454475531860494E-01
     3.816926820617200        0.9349430605646424E-01
     3.829998487811094        0.9245368145429964E-01
     3.843070155004989        0.9142280458367262E-01
     3.856141822198884        0.9040159853150376E-01
     3.869213489392778        0.8938998641976306E-01
     3.882285156586673        0.8838789142443583E-01
     3.895356823780567        0.8739523679378190E-01
     3.908428490974462        0.8641194586591033E-01
     3.921500158168356        0.8543794208568867E-01
     3.934571825362251        0.8447314902100771E-01
     3.947643492556145        0.8351749037841956E-01
     3.960715159750040        0.8257089001816842E-01
     3.973786826943934        0.8163327196863074E-01
     3.986858494137829        0.8070456044018394E-01
     3.999930161331723        0.7978467983851870E-01
     4.013001828525618        0.7887355477741430E-01
     4.026073495719512        0.7797111009098907E-01
     4.039145162913407        0.7707727084544419E-01
     4.052216830107302        0.7619196235031690E-01
     4.065288497301196        0.7531511016925480E-01
     4.078360164495090        0.7444664013032863E-01
     4.091431831688985        0.7358647833589478E-01
     4.104503498882879        0.7273455117202349E-01
     4.117575166076774        0.7189078531750422E-01
     4.130646833270669        0.7105510775244310E-01
     4.143718500464563        0.7022744576646085E-01
     4.156790167658458        0.6940772696650833E-01
     4.169861834852352        0.6859587928430831E-01
     4.182933502046247        0.6779183098343475E-01
     4.196005169240141        0.6699551066604395E-01
     4.209076836434035        0.6620684727926310E-01
     4.222148503627930        0.6542577012125213E-01
     4.235220170821824        0.6465220884694527E-01
     4.248291838015719        0.6388609347348431E-01
     4.261363505209614        0.6312735438535266E-01
     4.274435172403508        0.6237592233921867E-01
     4.287506839597403        0.6163172846849842E-01
     4.300578506791298        0.6089470428764775E-01
     4.313650173985192        0.6016478169618864E-01
     4.326721841179086        0.5944189298248239E-01
     4.339793508372981        0.5872597082725529E-01
     4.352865175566875        0.5801694830688529E-01
     4.365936842760770        0.5731475889645755E-01
     4.379008509954664        0.5661933647259560E-01
     4.392080177148559        0.5593061531607643E-01
     4.405151844342454        0.5524853011423632E-01
     4.418223511536348        0.5457301596317258E-01
     4.431295178730243        0.5390400836975047E-01
     4.444366845924137        0.5324144325342018E-01
     4.457438513118031        0.5258525694784982E-01
     4.470510180311926        0.5193538620238222E-01
     4.483581847505820        0.5129176818331910E-01
     4.496653514699715        0.5065434047504039E-01
     4.509725181893610        0.5002304108096401E-01
     4.522796849087504        0.4939780842434920E-01
     4.535868516281399        0.4877858134895221E-01
     4.548940183475294        0.4816529911953768E-01
     4.562011850669188        0.4755790142224928E-01
     4.575083517863082        0.4695632836484737E-01
     4.588155185056976        0.4636052047681632E-01
     4.601226852250871        0.4577041870934656E-01
     4.614298519444766        0.4518596443519580E-01
     4.627370186638660        0.4460709944843408E-01
     4.640441853832555        0.4403376596407590E-01
     4.653513521026449        0.4346590661760455E-01
     4.666585188220344        0.4290346446439137E-01
     4.679656855414239        0.4234638297901588E-01
     4.692728522608133        0.4179460605448677E-01
     4.705800189802027        0.4124807800137139E-01
     4.718871856995922        0.4070674354683527E-01
     4.731943524189816        0.4017054783359417E-01
     4.745015191383711        0.3963943641878363E-01
     4.758086858577606        0.3911335527274915E-01
     4.771158525771500        0.3859225077775815E-01
     4.784230192965395        0.3807606972663911E-01
     4.797301860159289        0.3756475932134948E-01
     4.810373527353184        0.3705826717147509E-01
     4.823445194547078        0.3655654129266465E-01
     4.836516861740972        0.3605953010500120E-01
     4.849588528934867        0.3556718243131353E-01
     4.862660196128761        0.3507944749542961E-01
     4.875731863322656        0.3459627492037533E-01
     4.888803530516551        0.3411761472651991E-01
     4.901875197710445        0.3364341732967075E-01
     4.914946864904340        0.3317363353911986E-01
     4.928018532098235        0.3270821455564443E-01
     4.941090199292129        0.3224711196946240E-01
     4.954161866486023        0.3179027775814669E-01
     4.967233533679918        0.3133766428449881E-01
     4.980305200873812        0.3088922429438396E-01
     4.993376868067707        0.3044491091453012E-01
     5.006448535261601        0.3000467765029200E-01
     5.019520202455496        0.2956847838338210E-01
     5.032591869649391        0.2913626736957069E-01
     5.045663536843285        0.2870799923635579E-01
     5.058735204037180        0.2828362898060476E-01
     5.071806871231074        0.2786311196617029E-01
     5.084878538424968        0.2744640392147975E-01
     5.097950205618863        0.2703346093710189E-01
     5.111021872812757        0.2662423946329126E-01
     5.124093540006652        0.2621869630751021E-01
     5.137165207200547        0.2581678863193276E-01
     5.150236874394441        0.2541847395092945E-01
     5.163308541588336        0.2502371012853397E-01
     5.176380208782231        0.2463245537589507E-01
     5.189451875976125        0.2424466824871279E-01
     5.202523543170019        0.2386030764466037E-01
     5.215595210363913        0.2347933280079404E-01
     5.228666877557808        0.2310170329095072E-01
     5.241738544751703        0.2272737902313457E-01
     5.254810211945597        0.2235632023689405E-01
     5.267881879139492        0.2198848750068980E-01
     5.280953546333386        0.2162384170925442E-01
     5.294025213527281        0.2126234408094497E-01
     5.307096880721176        0.2090395615508924E-01
     5.320168547915070        0.2054863978932642E-01
     5.333240215108964        0.2019635715694236E-01
     5.346311882302859        0.1984707074420204E-01
     5.359383549496753        0.1950074334767728E-01
     5.372455216690648        0.1915733807157230E-01
     5.385526883884543        0.1881681832504782E-01
     5.398598551078437        0.1847914781954267E-01
     5.411670218272332        0.1814429056609549E-01
     5.424741885466226        0.1781221087266618E-01
     5.437813552660121        0.1748287334145750E-01
     5.450885219854015        0.1715624286623815E-01
     5.463956887047909        0.1683228462966655E-01
     5.477028554241804        0.1651096410061753E-01
     5.490100221435698        0.1619224703151070E-01
     5.503171888629593        0.1587609945564259E-01
     5.516243555823488        0.1556248768452312E-01
     5.529315223017382        0.1525137830521269E-01
     5.542386890211277        0.1494273817766523E-01
     5.555458557405172        0.1463653443207692E-01
     5.568530224599066        0.1433273446623940E-01
     5.581601891792960        0.1403130594289936E-01
     5.594673558986855        0.1373221678712266E-01
     5.607745226180749        0.1343543518366511E-01
     5.620816893374644        0.1314092957434870E-01
     5.633888560568538        0.1284866865544630E-01
     5.646960227762433        0.1255862137507182E-01
     5.660031894956328        0.1227075693057869E-01
     5.673103562150222        0.1198504476596600E-01
     5.686175229344117        0.1170145456929171E-01
     5.699246896538011        0.1141995627009530E-01
     5.712318563731905        0.1114052003682712E-01
     5.725390230925800        0.1086311627428804E-01
     5.738461898119694        0.1058771562107648E-01
     5.751533565313589        0.1031428894704505E-01
     5.764605232507484        0.1004280735076655E-01
     5.777676899701378        0.9773242157008458E-02
     5.790748566895273        0.9505564914218129E-02
     5.803820234089168        0.9239747392016370E-02
     5.816891901283062        0.8975761578701912E-02
     5.829963568476956        0.8713579678765201E-02
     5.843035235670850        0.8453174110412479E-02
     5.856106902864745        0.8194517503099878E-02
     5.869178570058640        0.7937582695077829E-02
     5.882250237252534        0.7682342730946497E-02
     5.895321904446429        0.7428770859220498E-02
     5.908393571640323        0.7176840529906233E-02
     5.921465238834218        0.6926525393802219E-02
     5.934536906028113        0.6677799397335715E-02
     5.947608573222007        0.6430637961013856E-02
     5.960680240415901        0.6185023150242711E-02
     5.973751907609796        0.5940954925419768E-02
     5.986823574803690        0.5698466195778722E-02
     5.999895241997585        0.5457636897811547E-02
     6.012966909191480        0.5218603420115376E-02
     6.026038576385374        0.4981562059358245E-02
     6.039110243579269        0.4746766980217506E-02
     6.052181910773163        0.4514523989340082E-02
     6.065253577967058        0.4285181592663528E-02
     6.078325245160952        0.4059120625100995E-02
     6.091396912354846        0.3836743447979253E-02
     6.104468579548741        0.3618463416473854E-02
     6.117540246742635        0.3404695074909164E-02
     6.130611913936530        0.3195845350346952E-02
     6.143683581130425        0.2992305879645587E-02
     6.156755248324319        0.2794446511870902E-02
     6.169826915518214        0.2602609966230923E-02
     6.182898582712109        0.2417107586849253E-02
     6.195970249906003        0.2238216112866528E-02
     6.209041917099897        0.2066175370523700E-02
     6.222113584293792        0.1901186789391115E-02
     6.235185251487686        0.1743412645206429E-02
     6.248256918681581        0.1592975935088060E-02
     6.261328585875475        0.1449960795978048E-02
     6.274400253069370        0.1314413383202113E-02
     6.287471920263265        0.1186343132443955E-02
     6.300543587457159        0.1065724334822339E-02
     6.313615254651054        0.9524979608412998E-03
     6.326686921844948        0.8465736745260514E-03
     6.339758589038842        0.7478319838153032E-03
     6.352830256232737        0.6561264769652929E-03
     6.365901923426631        0.5712860968635497E-03
     6.378973590620526        0.4931174049842572E-03
     6.392045257814421        0.4214067828114790E-03
     6.405116925008315        0.3559225082030635E-03
     6.418188592202210        0.2964166218747300E-03
     6.431260259396105        0.2426264532621220E-03
     6.444331926589999        0.1942755787276722E-03
     6.457403593783893        0.1510737719515618E-03
     6.470475260977787        0.1127149924260993E-03
     6.483546928171682        0.7887105725248677E-04
     6.496618595365577        0.4917408051146585E-04
     6.509690262559471        0.2316106637930981E-04
     6.522761929753366         0.000000000000000    
  0  3  2  0  0.000000   #orbital l, n, z, is_polarized, population
 500    0.9205530109949974E-02     4.593559524865038     # npts, delta, cutoff
     0.000000000000000       -0.5069759740605808E-01
    0.9205530109949974E-02   -0.5065580964183426E-01
    0.1841106021989995E-01   -0.5052687071821387E-01
    0.2761659032984992E-01   -0.5031194284792018E-01
    0.3682212043979990E-01   -0.5001098381330889E-01
    0.4602765054974987E-01   -0.4962393543951161E-01
    0.5523318065969984E-01   -0.4915072511331264E-01
    0.6443871076964983E-01   -0.4859126746865412E-01
    0.7364424087959980E-01   -0.4794546638510399E-01
    0.8284977098954976E-01   -0.4721321729875366E-01
    0.9205530109949975E-01   -0.4639440980769960E-01
    0.1012608312094497       -0.4548893054892678E-01
    0.1104663613193997       -0.4449666632026442E-01
    0.1196718914293497       -0.4341750741865492E-01
    0.1288774215392997       -0.4225135116394570E-01
    0.1380829516492496       -0.4099810557573429E-01
    0.1472884817591996       -0.3965769316944021E-01
    0.1564940118691496       -0.3823005483675665E-01
    0.1656995419790995       -0.3671515377495149E-01
    0.1749050720890495       -0.3511297942914715E-01
    0.1841106021989995       -0.3342355141171011E-01
    0.1933161323089495       -0.3164692336323330E-01