<preamble>

<basis_specs>
===============================================================================
As                   Z=  33    Mass=  74.922        Charge= 0.17977+309
Lmxo=2 Lmxkb= 2    BasisType=split      Semic=T
L=0  Nsemic=0  Cnfigmx=4
          i=1  nzeta=2  polorb=0  (4s)
            splnorm:   0.15000    
               vcte:    40.000    
               rinn:    4.6392    
               qcoe:    0.0000    
               qyuk:    0.0000    
               qwid:   0.10000E-01
                rcs:    5.1494      3.5183    
            lambdas:    1.0000      1.0000    
L=1  Nsemic=0  Cnfigmx=4
          i=1  nzeta=2  polorb=0  (4p)  (to be polarized non-perturbatively)
            splnorm:   0.15000    
               vcte:    40.000    
               rinn:    6.0738    
               qcoe:    0.0000    
               qyuk:    0.0000    
               qwid:   0.10000E-01
                rcs:    6.7487      4.7054    
            lambdas:    1.0000      1.0000    
L=2  Nsemic=1  Cnfigmx=4
          i=1  nzeta=1  polorb=0  (3d)  (semicore shell)
            splnorm:   0.15000    
               vcte:    40.000    
               rinn:    2.4297    
               qcoe:    0.0000    
               qyuk:    0.0000    
               qwid:   0.10000E-01
                rcs:    2.6997    
            lambdas:    1.0000    
          i=2  nzeta=1  polorb=0  (4d)  (non-perturbative polarization shell)
            splnorm:   0.15000    
               vcte:    40.000    
               rinn:    6.0799    
               qcoe:    0.0000    
               qyuk:    0.0000    
               qwid:   0.10000E-01
                rcs:    6.7487    
            lambdas:    1.0000    
-------------------------------------------------------------------------------
L=0  Nkbl=1  erefs: 0.17977+309
L=1  Nkbl=1  erefs: 0.17977+309
L=2  Nkbl=2  erefs: 0.17977+309 0.17977+309
===============================================================================
</basis_specs>

<pseudopotential_header>
 As pw nrl pcec
 ONCVPSP-3.2018-03-09Hamann's oncvpsp                        
 4s 2.00  r= 1.81/4p 3.00  r= 1.61/3d10.00  r= 1.81/                    3d:4s:4p:
</pseudopotential_header>
</preamble>
As                            # Symbol
As                            # Label
   33                         # Atomic number
     15.0000000000                             # Valence charge
     74.9220000000        # Mass 
     223.415007997        # Self energy 
   2   6                      # Lmax for basis, no. of nl orbitals 
   2   6                      # Lmax for projectors, no. of nl KB projectors
# PAOs:__________________________
  0  4  1  0  2.000000   #orbital l, n, z, is_polarized, population
 500    0.1031953731367369E-01     5.149449119523172     # npts, delta, cutoff
     0.000000000000000        0.4350260322040467E-01
    0.1031953731367369E-01    0.4360629705461629E-01
    0.2063907462734738E-01    0.4392051572558101E-01
    0.3095861194102107E-01    0.4444381193096955E-01
    0.4127814925469476E-01    0.4517558303508291E-01
    0.5159768656836845E-01    0.4611498774636198E-01
    0.6191722388204214E-01    0.4726094801281307E-01
    0.7223676119571583E-01    0.4861215164394127E-01
    0.8255629850938952E-01    0.5016705551579032E-01
    0.9287583582306320E-01    0.5192388933041018E-01
    0.1031953731367369        0.5388065991049401E-01
    0.1135149104504106        0.5603515600986122E-01
    0.1238344477640843        0.5838495361891108E-01
    0.1341539850777580        0.6092742174236093E-01
    0.1444735223914317        0.6365972862477216E-01
    0.1547930597051053        0.6657884839764909E-01
    0.1651125970187790        0.6968156812028604E-01
    0.1754321343324527        0.7296449518506903E-01
    0.1857516716461264        0.7642406505659823E-01
    0.1960712089598001        0.8005654931282119E-01
    0.2063907462734738        0.8385806395534290E-01
    0.2167102835871475        0.8782457795522142E-01
    0.2270298209008212        0.9195192199988238E-01
    0.2373493582144948        0.9623579740627057E-01
    0.2476688955281686        0.1006717851650399    
    0.2579884328418423        0.1052553550804239    
    0.2683079701555159        0.1099818749704715    
    0.2786275074691896        0.1148466198925440    
    0.2889470447828633        0.1198447813593611    
    0.2992665820965370        0.1249714765114534    
    0.3095861194102107        0.1302217572126143    
    0.3199056567238844        0.1355906190358557    
    0.3302251940375581        0.1410730101084305    
    0.3405447313512318        0.1466638397857124    
    0.3508642686649054        0.1523579871250821    
    0.3611838059785791        0.1581503091324803    
    0.3715033432922528        0.1640356487559145    
    0.3818228806059265        0.1700088426019606    
    0.3921424179196002        0.1760647283531653    
    0.4024619552332739        0.1821981518661991    
    0.4127814925469476        0.1884039739326733    
    0.4231010298606213        0.1946770766866329    
    0.4334205671742949        0.2010123696449309    
    0.4437401044879686        0.2074047953689098    
    0.4540596418016423        0.2138493347380846    
    0.4643791791153160        0.2203410118288116    
    0.4746987164289897        0.2268748983932208    
    0.4850182537426634        0.2334461179359947    
    0.4953377910563371        0.2400498493888450    
    0.5056573283700108        0.2466813303848027    
    0.5159768656836845        0.2533358601366408    
    0.5262964029973581        0.2600088019259067    
    0.5366159403110319        0.2666955852111357    
    0.5469354776247055        0.2733917073658301    
    0.5572550149383793        0.2800927350587185    
    0.5675745522520529        0.2867943052906310    
    0.5778940895657266        0.2934921261040586    
    0.5882136268794003        0.3001819769830474    
    0.5985331641930740        0.3068597089625859    
    0.6088527015067476        0.3135212444679387    
    0.6191722388204214        0.3201625769056423    
    0.6294917761340950        0.3267797700288709    
    0.6398113134477688        0.3333689571008275    
    0.6501308507614424        0.3399263398805385    
    0.6604503880751161        0.3464481874560281    
    0.6707699253887899        0.3529308349502592    
    0.6810894627024635        0.3593706821254976    
    0.6914090000161373        0.3657641919118526    
    0.7017285373298109        0.3721078888856704    
    0.7120480746434846        0.3783983577232218    
    0.7223676119571583        0.3846322416547663    
    0.7326871492708320        0.3908062409434752    
    0.7430066865845056        0.3969171114130395    
    0.7533262238981794        0.4029616630469227    
    0.7636457612118530        0.4089367586812288    
    0.7739652985255268        0.4148393128120248    
    0.7842848358392004        0.4206662905367271    
    0.7946043731528741        0.4264147066477618    
    0.8049239104665478        0.4320816248952432    
    0.8152434477802215        0.4376641574338349    
    0.8255629850938951        0.4431594644672687    
    0.8358825224075689        0.4485647541022594    
    0.8462020597212425        0.4538772824217286    
    0.8565215970349163        0.4590943537853557    
    0.8668411343485899        0.4642133213635646    
    0.8771606716622636        0.4692315879090980    
    0.8874802089759373        0.4741466067683267    
    0.8977997462896110        0.4789558831324687    
    0.9081192836032846        0.4836569755269109    
    0.9184388209169584        0.4882474975348230    
    0.9287583582306320        0.4927251197493357    
    0.9390778955443058        0.4970875719466369    
    0.9493974328579794        0.5013326454704721    
    0.9597169701716531        0.5054581958167556    
    0.9700365074853268        0.5094621454052680    
    0.9803560447990005        0.5133424865237715    
    0.9906755821126743        0.5170972844283349    
     1.000995119426348        0.5207246805822148    
     1.011314656740022        0.5242228960142975    
     1.021634194053695        0.5275902347769098    
     1.031953731367369        0.5308250874816897    
     1.042273268681043        0.5339259348912943    
     1.052592805994716        0.5368913515438665    
     1.062912343308390        0.5397200093865421    
     1.073231880622064        0.5424106813937223    
     1.083551417935738        0.5449622451455090    
     1.093870955249411        0.5473736863414275    
     1.104190492563085        0.5496441022245392    
     1.114510029876759        0.5517727048911166    
     1.124829567190432        0.5537588244612887    
     1.135149104504106        0.5556019120864858    
     1.145468641817780        0.5573015427700394    
     1.155788179131453        0.5588574179779934    
     1.166107716445127        0.5602693680180181    
     1.176427253758801        0.5615373541652984    
     1.186746791072474        0.5626614705153657    
     1.197066328386148        0.5636419455450936    
     1.207385865699822        0.5644791433644017    
     1.217705403013495        0.5651735646427029    
     1.228024940327169        0.5657258471956776    
     1.238344477640843        0.5661367662196265    
     1.248664014954517        0.5664072341623910    
     1.258983552268190        0.5665383002216577    
     1.269303089581864        0.5665311494633352    
     1.279622626895538        0.5663871015546441    
     1.289942164209211        0.5661076091085323    
     1.300261701522885        0.5656942555347655    
     1.310581238836559        0.5651487492693384    
     1.320900776150232        0.5644729232759017    
     1.331220313463906        0.5636687339355646    
     1.341539850777580        0.5627382568325101    
     1.351859388091253        0.5616836827912461    
     1.362178925404927        0.5605073135578715    
     1.372498462718601        0.5592115571384227    
     1.382818000032275        0.5577989228090267    
     1.393137537345948        0.5562720158143679    
     1.403457074659622        0.5546335317726794    
     1.413776611973296        0.5528862508070551    
     1.424096149286969        0.5510330314243944    
     1.434415686600643        0.5490768040124996    
     1.444735223914317        0.5470205852670635    
     1.455054761227990        0.5448674093314920    
     1.465374298541664        0.5426203826019919    
     1.475693835855338        0.5402826565150453    
     1.486013373169011        0.5378574202188692    
     1.496332910482685        0.5353478933841279    
     1.506652447796359        0.5327573189723968    
     1.516971985110032        0.5300889559915340    
     1.527291522423706        0.5273460722672990    
     1.537611059737380        0.5245319372605481    
     1.547930597051054        0.5216498149591934    
     1.558250134364727        0.5187029568738128    
     1.568569671678401        0.5156945951653479    
     1.578889208992075        0.5126279359327267    
     1.589208746305748        0.5095061526875196    
     1.599528283619422        0.5063323800418335    
     1.609847820933096        0.5031097076346771    
     1.620167358246769        0.4998411743208263    
     1.630486895560443        0.4965297626450035    
     1.640806432874117        0.4931783936227678    
     1.651125970187790        0.4897899218480155    
     1.661445507501464        0.4863671309454611    
     1.671765044815138        0.4829127293847192    
     1.682084582128812        0.4794293466708975    
     1.692404119442485        0.4759195299247542    
     1.702723656756159        0.4723857408635719    
     1.713043194069833        0.4688303531919638    
     1.723362731383506        0.4652556504098496    
     1.733682268697180        0.4616638240427962    
     1.744001806010854        0.4580569722978994    
     1.754321343324527        0.4544370991205655    
     1.764640880638201        0.4508061136511863    
     1.774960417951875        0.4471658305440593    
     1.785279955265548        0.4435179704878120    
     1.795599492579222        0.4398641591055236    
     1.805919029892896        0.4362059276722753    
     1.816238567206569        0.4325447205451884    
     1.826558104520243        0.4288819066421177    
     1.836877641833917        0.4252187916016443    
     1.847197179147591        0.4215566283476665    
     1.857516716461264        0.4178966216505587    
     1.867836253774938        0.4142399277923579    
     1.878155791088612        0.4105876548942884    
     1.888475328402285        0.4069408649574253    
     1.898794865715959        0.4033005756111949    
     1.909114403029633        0.3996677614380478    
     1.919433940343306        0.3960433553429377    
     1.929753477656980        0.3924282498981952    
     1.940073014970654        0.3888232986485935    
     1.950392552284327        0.3852293173779737    
     1.960712089598001        0.3816470853387062    
     1.971031626911675        0.3780773464450068    
     1.981351164225349        0.3745208104310980    
     1.991670701539022        0.3709781539751814    
     2.001990238852696        0.3674500217901729    
     2.012309776166370        0.3639370276821112    
     2.022629313480043        0.3604397555771424    
     2.032948850793717        0.3569587605179544    
     2.043268388107391        0.3534945696305133    
     2.053587925421064        0.3500476830619273    
     2.063907462734738        0.3466185748902523    
     2.074227000048412        0.3432076940070242    
     2.084546537362086        0.3398154649732824    
     2.094866074675759        0.3364422888498368    
     2.105185611989433        0.3330885440024959    
     2.115505149303107        0.3297545868829770    
     2.125824686616780        0.3264407527861749    
     2.136144223930454        0.3231473565844661    
     2.146463761244128        0.3198746934397023    
     2.156783298557801        0.3166230394935229    
     2.167102835871475        0.3133926525366125    
     2.177422373185149        0.3101837726574978    
     2.187741910498822        0.3069966228714725    
     2.198061447812496        0.3038314097302215    
     2.208380985126170        0.3006883239126951    
     2.218700522439843        0.2975675407977741    
     2.229020059753517        0.2944692210192499    
     2.239339597067191        0.2913935110036308    
     2.249659134380865        0.2883405434912673    
     2.259978671694538        0.2853104380412853    
     2.270298209008212        0.2823033015207885    
     2.280617746321886        0.2793192285787924    
     2.290937283635559        0.2763583021053317    
     2.301256820949233        0.2734205936761752    
     2.311576358262907        0.2705061639835592    
     2.321895895576580        0.2676150632533632    
     2.332215432890254        0.2647473316491070    
     2.342534970203928        0.2619029996631687    
     2.352854507517601        0.2590820884955901    
     2.363174044831275        0.2562846104208408    
     2.373493582144949        0.2535105691428877    
     2.383813119458623        0.2507599601389210    
     2.394132656772296        0.2480327709920704    
     2.404452194085970        0.2453289817134305    
     2.414771731399644        0.2426485650537239    
     2.425091268713317        0.2399914868048951    
     2.435410806026991        0.2373577060919479    
     2.445730343340665        0.2347471756553042    
     2.456049880654338        0.2321598421239758    
     2.466369417968012        0.2295956462798184    
     2.476688955281686        0.2270545233131337    
     2.487008492595359        0.2245364030698836    
     2.497328029909033        0.2220412102907598    
     2.507647567222707        0.2195688648423627    
     2.517967104536380        0.2171192819407167    
     2.528286641850054        0.2146923723673616    
     2.538606179163728        0.2122880426782391    
     2.548925716477402        0.2099061954055899    
     2.559245253791075        0.2075467292530819    
     2.569564791104749        0.2052095392843612    
     2.579884328418423        0.2028945171052398    
     2.590203865732096        0.2006015510396995    
     2.600523403045770        0.1983305262999133    
     2.610842940359444        0.1960813251504553    
     2.621162477673117        0.1938538270668853    
     2.631482014986791        0.1916479088888738    
     2.641801552300465        0.1894634449680401    
     2.652121089614138        0.1873003073106598    
     2.662440626927812        0.1851583657154038    
     2.672760164241486        0.1830374879062635    
     2.683079701555160        0.1809375396608031    
     2.693399238868833        0.1788583849338937    
     2.703718776182507        0.1767998859770525    
     2.714038313496181        0.1747619034535502    
     2.724357850809854        0.1727442965493894    
     2.734677388123528        0.1707469230803015    
     2.744996925437202        0.1687696395948663    
     2.755316462750875        0.1668123014739129    
     2.765636000064549        0.1648747630263203    
     2.775955537378223        0.1629568775811680    
     2.786275074691896        0.1610584975765735    
     2.796594612005570        0.1591794746453182    
     2.806914149319244        0.1573196596972156    
     2.817233686632917        0.1554789029983586    
     2.827553223946591        0.1536570542473820    
     2.837872761260265        0.1518539626488375    
     2.848192298573939        0.1500694769837652    
     2.858511835887612        0.1483034456775471    
     2.868831373201286        0.1465557168651276    
     2.879150910514960        0.1448261384536885    
     2.889470447828633        0.1431145581828598    
     2.899789985142307        0.1414208236825439    
     2.910109522455981        0.1397447825284298    
     2.920429059769654        0.1380862822952730    
     2.930748597083328        0.1364451706080151    
     2.941068134397002        0.1348212951908048    
     2.951387671710675        0.1332145039140002    
     2.961707209024349        0.1316246448392084    
     2.972026746338023        0.1300515662624314    
     2.982346283651697        0.1284951167553769    
     2.992665820965370        0.1269551452049986    
     3.002985358279044        0.1254315008513196    
     3.013304895592718        0.1239240333235957    
     3.023624432906391        0.1224325926748790    
     3.033943970220065        0.1209570294150262    
     3.044263507533739        0.1194971945422100    
     3.054583044847412        0.1180529395729804    
     3.064902582161086        0.1166241165709242    
     3.075222119474760        0.1152105781739719    
     3.085541656788433        0.1138121776203930    
     3.095861194102107        0.1124287687735283    
     3.106180731415781        0.1110602061453004    
     3.116500268729454        0.1097063449185422    
     3.126819806043128        0.1083670409681851    
     3.137139343356802        0.1070421508813453    
     3.147458880670476        0.1057315319763475    
     3.157778417984149        0.1044350423207181    
     3.168097955297823        0.1031525407481887    
     3.178417492611497        0.1018838868747401    
     3.188737029925170        0.1006289411137235    
     3.199056567238844        0.9938756469008611E-01
     3.209376104552518        0.9815961965373832E-01
     3.219695641866191        0.9694496889208817E-01
     3.230015179179865        0.9574347614177442E-01
     3.240334716493539        0.9455500599962682E-01
     3.250654253807212        0.9337942393287817E-01
     3.260973791120886        0.9221659628865958E-01
     3.271293328434560        0.9106639030280067E-01
     3.281612865748233        0.8992867410796104E-01
     3.291932403061907        0.8880331674111852E-01
     3.302251940375581        0.8769018815043472E-01
     3.312571477689255        0.8658915920152287E-01
     3.322891015002928        0.8550010168314012E-01
     3.333210552316602        0.8442288831232342E-01
     3.343530089630276        0.8335739273899126E-01
     3.353849626943949        0.8230348955003168E-01
     3.364169164257623        0.8126105427289336E-01
     3.374488701571297        0.8022996337870235E-01
     3.384808238884970        0.7921009428491732E-01
     3.395127776198644        0.7820132535754669E-01
     3.405447313512318        0.7720353591294021E-01
     3.415766850825991        0.7621660621917331E-01
     3.426086388139665        0.7524041749703983E-01
     3.436405925453339        0.7427485192066806E-01
     3.446725462767013        0.7331979261777524E-01
     3.457045000080686        0.7237512366957609E-01
     3.467364537394360        0.7144073011035622E-01
     3.477684074708034        0.7051649792672776E-01
     3.488003612021707        0.6960231405657705E-01
     3.498323149335381        0.6869806638771922E-01
     3.508642686649055        0.6780364375627004E-01
     3.518962223962728        0.6691893594474865E-01
     3.529281761276402        0.6604383367992044E-01
     3.539601298590076        0.6517822863039416E-01
     3.549920835903749        0.6432201340397997E-01
     3.560240373217423        0.6347508154482247E-01
     3.570559910531097        0.6263732753031653E-01
     3.580879447844770        0.6180864676781619E-01
     3.591198985158444        0.6098893559114567E-01
     3.601518522472118        0.6017809125692240E-01
     3.611838059785792        0.5937601194069899E-01
     3.622157597099465        0.5858259673293503E-01
     3.632477134413139        0.5779774563480406E-01
     3.642796671726813        0.5702135955384666E-01
     3.653116209040486        0.5625334029947365E-01
     3.663435746354160        0.5549359057832996E-01
     3.673755283667834        0.5474201398952552E-01
     3.684074820981507        0.5399851501973743E-01
     3.694394358295181        0.5326299903819354E-01
     3.704713895608855        0.5253537229154236E-01
     3.715033432922528        0.5181554189861470E-01
     3.725352970236202        0.5110341584508381E-01
     3.735672507549876        0.5039890297803030E-01
     3.745992044863550        0.4970191300041564E-01
     3.756311582177223        0.4901235646547145E-01
     3.766631119490897        0.4833014477100867E-01
     3.776950656804571        0.4765519015365172E-01
     3.787270194118244        0.4698740568300252E-01
     3.797589731431918        0.4632670525573914E-01
     3.807909268745592        0.4567300358965346E-01
     3.818228806059265        0.4502621621763183E-01
     3.828548343372939        0.4438625948158313E-01
     3.838867880686613        0.4375305052631857E-01
     3.849187418000286        0.4312650729338621E-01
     3.859506955313960        0.4250654851486427E-01
     3.869826492627634        0.4189309370711785E-01
     3.880146029941307        0.4128606316452033E-01
     3.890465567254981        0.4068537795314445E-01
     3.900785104568655        0.4009095990442624E-01
     3.911104641882329        0.3950273160880352E-01
     3.921424179196002        0.3892061640933309E-01
     3.931743716509676        0.3834453839528941E-01
     3.942063253823350        0.3777442239574633E-01
     3.952382791137023        0.3721019397314649E-01
     3.962702328450697        0.3665177941685856E-01
     3.973021865764371        0.3609910573672663E-01
     3.983341403078044        0.3555210065661305E-01
     3.993660940391718        0.3501069260793714E-01
     4.003980477705392        0.3447481072321214E-01
     4.014300015019066        0.3394438482958229E-01
     4.024619552332739        0.3341934544236160E-01
     4.034939089646413        0.3289962375857689E-01
     4.045258626960086        0.3238515165051675E-01
     4.055578164273760        0.3187586165928726E-01
     4.065897701587434        0.3137168698837748E-01
     4.076217238901108        0.3087256149723575E-01
     4.086536776214781        0.3037841969485702E-01
     4.096856313528455        0.2988919673338499E-01
     4.107175850842128        0.2940482840172931E-01
     4.117495388155803        0.2892525111919744E-01
     4.127814925469476        0.2845040192914683E-01
     4.138134462783150        0.2798021849265266E-01
     4.148454000096823        0.2751463908219794E-01
     4.158773537410497        0.2705360257538407E-01
     4.169093074724171        0.2659704844866220E-01
     4.179412612037845        0.2614491677108896E-01
     4.189732149351518        0.2569714819810553E-01
     4.200051686665192        0.2525368396534131E-01
     4.210371223978865        0.2481446588244372E-01
     4.220690761292539        0.2437943632693403E-01
     4.231010298606213        0.2394853823809028E-01
     4.241329835919887        0.2352171511085882E-01
     4.251649373233560        0.2309891098979299E-01
     4.261968910547234        0.2268007046302279E-01
     4.272288447860907        0.2226513865625241E-01
     4.282607985174582        0.2185406122678938E-01
     4.292927522488255        0.2144678435760458E-01
     4.303247059801929        0.2104325475142218E-01
     4.313566597115602        0.2064341962484299E-01
     4.323886134429276        0.2024722670249913E-01
     4.334205671742950        0.1985462421124136E-01
     4.344525209056624        0.1946556087435948E-01
     4.354844746370297        0.1907998590583571E-01
     4.365164283683971        0.1869784900463262E-01
     4.375483820997644        0.1831910034901305E-01
     4.385803358311319        0.1794369059089610E-01
     4.396122895624992        0.1757157085024651E-01
     4.406442432938666        0.1720269270949837E-01
     4.416761970252339        0.1683700820801420E-01
     4.427081507566013        0.1647446983657833E-01
     4.437401044879686        0.1611503053192595E-01
     4.447720582193361        0.1575864367130640E-01
     4.458040119507034        0.1540526306708273E-01
     4.468359656820708        0.1505484296136603E-01
     4.478679194134381        0.1470733802068495E-01
     4.488998731448055        0.1436270333069140E-01
     4.499318268761729        0.1402089439090074E-01
     4.509637806075403        0.1368186710946861E-01
     4.519957343389076        0.1334557779800192E-01
     4.530276880702750        0.1301198316640640E-01
     4.540596418016423        0.1268104031776933E-01
     4.550915955330098        0.1235270674327707E-01
     4.561235492643771        0.1202694031716871E-01
     4.571555029957445        0.1170369929172440E-01
     4.581874567271118        0.1138294229228919E-01
     4.592194104584792        0.1106462831233156E-01
     4.602513641898465        0.1074871670853741E-01
     4.612833179212140        0.1043516719593868E-01
     4.623152716525813        0.1012393984307652E-01
     4.633472253839487        0.9814995067199310E-02
     4.643791791153160        0.9508293629494576E-02
     4.654111328466834        0.9203796630356288E-02
     4.664430865780508        0.8901465504685192E-02
     4.674750403094182        0.8601262018903481E-02
     4.685069940407855        0.8303148361652121E-02
     4.695389477721529        0.8007088298765112E-02
     4.705709015035202        0.7713052259693398E-02
     4.716028552348877        0.7421028441780917E-02
     4.726348089662550        0.7131037745495857E-02
     4.736667626976224        0.6843147870695103E-02
     4.746987164289897        0.6557482950397611E-02
     4.757306701603571        0.6274227397151907E-02
     4.767626238917245        0.5993624387124705E-02
     4.777945776230919        0.5715970232482387E-02
     4.788265313544592        0.5441606056020328E-02
     4.798584850858266        0.5170908012017897E-02
     4.808904388171939        0.4904277014758791E-02
     4.819223925485613        0.4642128654307107E-02
     4.829543462799287        0.4384883743022218E-02
     4.839863000112961        0.4132959755869826E-02
     4.850182537426634        0.3886763297706978E-02
     4.860502074740308        0.3646683641461765E-02
     4.870821612053981        0.3413087322431467E-02
     4.881141149367656        0.3186313737225740E-02
     4.891460686681329        0.2966671674554719E-02
     4.901780223995003        0.2754436694171564E-02
     4.912099761308676        0.2549849266305174E-02
     4.922419298622350        0.2353113584376678E-02
     4.932738835936024        0.2164396966968921E-02
     4.943058373249698        0.1983829769746212E-02
     4.953377910563371        0.1811505733498498E-02
     4.963697447877045        0.1647482700181027E-02
     4.974016985190718        0.1491783634343865E-02
     4.984336522504393        0.1344397892422232E-02
     4.994656059818066        0.1205282686720796E-02
     5.004975597131740        0.1074364694299631E-02
     5.015295134445413        0.9515417629482551E-03
     5.025614671759087        0.8366846663928892E-03
     5.035934209072760        0.7296388577124153E-03
     5.046253746386435        0.6302261616389273E-03
     5.056573283700108        0.5382463291408610E-03
     5.066892821013782        0.4534783437387083E-03
     5.077212358327455        0.3756813020234324E-03
     5.087531895641129        0.3045945536799137E-03
     5.097851432954803        0.2399364870367017E-03
     5.108170970268477        0.1814006318068225E-03
     5.118490507582150        0.1286458199013542E-03
     5.128810044895824        0.8127090767624422E-04
     5.139129582209497        0.3873784228549893E-04
     5.149449119523172         0.000000000000000    
  0  4  2  0  0.000000   #orbital l, n, z, is_polarized, population
 500    0.7050797887047225E-02     3.518348145636565     # npts, delta, cutoff
     0.000000000000000       -0.3252970014139904    
    0.7050797887047225E-02   -0.3252062242746994    
    0.1410159577409445E-01   -0.3249278391791950    
    0.2115239366114167E-01   -0.3244640265108473    
    0.2820319154818890E-01   -0.3238150334109784    
    0.3525398943523612E-01   -0.3229812046120458    
    0.4230478732228335E-01   -0.3219629825224831    
    0.4935558520933057E-01   -0.3207609067864929    
    0.5640638309637780E-01   -0.3193756136812451    
    0.6345718098342502E-01   -0.3178078353929235    