<preamble>

<basis_specs>
===============================================================================
B                    Z=   5    Mass=  10.810        Charge= 0.17977+309
Lmxo=2 Lmxkb= 1    BasisType=split      Semic=F
L=0  Nsemic=0  Cnfigmx=2
          i=1  nzeta=2  polorb=0  (2s)
            splnorm:   0.15000    
               vcte:    40.000    
               rinn:    5.0769    
               qcoe:    0.0000    
               qyuk:    0.0000    
               qwid:   0.10000E-01
                rcs:    5.6353      3.8199    
            lambdas:    1.0000      1.0000    
L=1  Nsemic=0  Cnfigmx=2
          i=1  nzeta=2  polorb=1  (2p)  (to be polarized perturbatively)
            splnorm:   0.15000    
               vcte:    40.000    
               rinn:    6.1843    
               qcoe:    0.0000    
               qyuk:    0.0000    
               qwid:   0.10000E-01
                rcs:    6.8715      4.6772    
            lambdas:    1.0000      1.0000    
L=2  Nsemic=0  Cnfigmx=3
          i=1  nzeta=0  polorb=0  (3d)  (perturbative polarization orbital) (from 2p)
-------------------------------------------------------------------------------
L=0  Nkbl=1  erefs: 0.17977+309
L=1  Nkbl=1  erefs: 0.17977+309
===============================================================================
</basis_specs>

<pseudopotential_header>
 B  pw nrl pcec
 ONCVPSP-3.2018-03-09Hamann's oncvpsp                        
 2s 2.00  r= 1.21/2p 1.00  r= 1.21/                                     2s:2p:
</pseudopotential_header>
</preamble>
B                             # Symbol
B                             # Label
    5                         # Atomic number
     3.00000000000                             # Valence charge
     10.8100000000        # Mass 
     11.8789301782        # Self energy 
   2   5                      # Lmax for basis, no. of nl orbitals 
   1   4                      # Lmax for projectors, no. of nl KB projectors
# PAOs:__________________________
  0  2  1  0  2.000000   #orbital l, n, z, is_polarized, population
 500    0.1129325960855259E-01     5.635336544667743     # npts, delta, cutoff
     0.000000000000000        0.2954241937260798    
    0.1129325960855259E-01    0.2955382952168099    
    0.2258651921710518E-01    0.2958847273766927    
    0.3387977882565778E-01    0.2964611273093029    
    0.4517303843421037E-01    0.2972660229409099    
    0.5646629804276296E-01    0.2982973736799725    
    0.6775955765131556E-01    0.2995525896523175    
    0.7905281725986814E-01    0.3010285560269962    
    0.9034607686842074E-01    0.3027216617987080    
    0.1016393364769733        0.3046278324551952    
    0.1129325960855259        0.3067425659019469    
    0.1242258556940785        0.3090609709624051    
    0.1355191153026311        0.3115778077307955    
    0.1468123749111837        0.3142875290290477    
    0.1581056345197363        0.3171843222099581    
    0.1693988941282889        0.3202621505559531    
    0.1806921537368415        0.3235147935463750    
    0.1919854133453941        0.3269358846727463    
    0.2032786729539467        0.3305189470174681    
    0.2145719325624992        0.3342574287169735    
    0.2258651921710518        0.3381447310294125    
    0.2371584517796044        0.3421742338287215    
    0.2484517113881570        0.3463393169745950    
    0.2597449709967096        0.3506333772839792    
    0.2710382306052622        0.3550498410150890    
    0.2823314902138148        0.3595821718824286    
    0.2936247498223674        0.3642238747272200    
    0.3049180094309200        0.3689684950696333    
    0.3162112690394726        0.3738096148649204    
    0.3275045286480252        0.3787408448728008    
    0.3387977882565777        0.3837558141263285    
    0.3500910478651303        0.3888481570511731    
    0.3613843074736829        0.3940114988374827    
    0.3726775670822355        0.3992394397030061    
    0.3839708266907881        0.4045255387072805    
    0.3952640862993407        0.4098632977819835    
    0.4065573459078933        0.4152461466319535    
    0.4178506055164459        0.4206674291352519    
    0.4291438651249985        0.4261203918296348    
    0.4404371247335511        0.4315981750179550    
    0.4517303843421037        0.4370938069576463    
    0.4630236439506563        0.4426002015212114    
    0.4743169035592089        0.4481101596273350    
    0.4856101631677615        0.4536163746480463    
    0.4969034227763141        0.4591114418983686    
    0.5081966823848666        0.4645878722135225    
    0.5194899419934192        0.4700381095173196    
    0.5307832016019718        0.4754545521862599    
    0.5420764612105244        0.4808295779193362    
    0.5533697208190770        0.4861555717358131    
    0.5646629804276296        0.4914249566443393    
    0.5759562400361822        0.4966302264584211    
    0.5872494996447348        0.5017639801771303    
    0.5985427592532874        0.5068189573072067    
    0.6098360188618399        0.5117880734743381    
    0.6211292784703926        0.5166644556580707    
    0.6324225380789451        0.5214414763866861    
    0.6437157976874978        0.5261127862454715    
    0.6550090572960503        0.5306723440836444    
    0.6663023169046030        0.5351144443509748    
    0.6775955765131555        0.5394337410538288    
    0.6888888361217081        0.5436252678905463    
    0.7001820957302607        0.5476844542060952    
    0.7114753553388133        0.5516071364939816    
    0.7227686149473659        0.5553895652673991    
    0.7340618745559184        0.5590284072194163    
    0.7453551341644711        0.5625207426913550    
    0.7566483937730236        0.5658640585671904    
    0.7679416533815763        0.5690562368075340    
    0.7792349129901288        0.5720955389273648    
    0.7905281725986815        0.5749805868051957    
    0.8018214322072340        0.5777103402858498    
    0.8131146918157867        0.5802840721028875    
    0.8244079514243392        0.5827013406985790    
    0.8357012110328919        0.5849619615580176    
    0.8469944706414444        0.5870659776987461    
    0.8582877302499969        0.5890136299676255    
    0.8695809898585496        0.5908053277924579    
    0.8808742494671021        0.5924416210172901    
    0.8921675090756548        0.5939231734178779    
    0.9034607686842073        0.5952507384482546    
    0.9147540282927600        0.5964251377119467    
    0.9260472879013125        0.5974472425833658    
    0.9373405475098652        0.5983179593279896    
    0.9486338071184177        0.5990382179858734    
    0.9599270667269704        0.5996089651937617    
    0.9712203263355229        0.6000311610286789    
    0.9825135859440755        0.6003057798624374    
    0.9938068455526281        0.6004338151241636    
     1.005100105161181        0.6004162877787333    
     1.016393364769733        0.6002542582449787    
     1.027686624378286        0.5999488414004297    
     1.038979883986838        0.5995012242509862    
     1.050273143595391        0.5989126857855925    
     1.061566403203944        0.5981846184890708    
     1.072859662812496        0.5973185509515969    
     1.084152922421049        0.5963161709915863    
     1.095446182029601        0.5951793487003499    
     1.106739441638154        0.5939101588218326    
     1.118032701246707        0.5925109018987756    
     1.129325960855259        0.5909841236472577    
     1.140619220463812        0.5893326320638870    
     1.151912480072364        0.5875595118228791    
     1.163205739680917        0.5856681355825381    
     1.174498999289470        0.5836621720064959    
     1.185792258898022        0.5815455899446903    
     1.197085518506575        0.5793226555950965    
     1.208378778115127        0.5769979456194800    
     1.219672037723680        0.5745762911423391    
     1.230965297332232        0.5720625770520996    
     1.242258556940785        0.5694615475577687    
     1.253551816549338        0.5667777637439566    
     1.264845076157890        0.5640156026766581    
     1.276138335766443        0.5611792901700130    
     1.287431595374996        0.5582728954039802    
     1.298724854983548        0.5553003367399379    
     1.310018114592101        0.5522653870773928    
     1.321311374200653        0.5491716790076613    
     1.332604633809206        0.5460227097711756    
     1.343897893417758        0.5428218460273194    
     1.355191153026311        0.5395723284452055    
     1.366484412634864        0.5362772761233392    
     1.377777672243416        0.5329396908456526    
     1.389070931851969        0.5295624611809866    
     1.400364191460521        0.5261483664327046    
     1.411657451069074        0.5227000804447642    
     1.422950710677627        0.5192201752702381    
     1.434243970286179        0.5157111247079540    
     1.445537229894732        0.5121753077126406    
     1.456830489503284        0.5086150116836831    
     1.468123749111837        0.5050324356373428    
     1.479417008720390        0.5014296932670504    
     1.490710268328942        0.4978088158961587    
     1.502003527937495        0.4941717553273374    
     1.513296787546047        0.4905203865925787    
     1.524590047154600        0.4868565106076164    
     1.535883306763153        0.4831818567343719    
     1.547176566371705        0.4794980852548811    
     1.558469825980258        0.4758067897600060    
     1.569763085588810        0.4721094994560780    
     1.581056345197363        0.4684076813924984    
     1.592349604805915        0.4647027426131733    
     1.603642864414468        0.4609960322345552    
     1.614936124023021        0.4572888434529295    
     1.626229383631573        0.4535824154834944    
     1.637522643240126        0.4498779354336585    
     1.648815902848678        0.4461765401128942    
     1.660109162457231        0.4424793177813908    
     1.671402422065784        0.4387873098396517    
     1.682695681674336        0.4351015124611117    
     1.693988941282889        0.4314228781697523    
     1.705282200891441        0.4277523173646310    
     1.716575460499994        0.4240906997931578    
     1.727868720108547        0.4204388559748853    
     1.739161979717099        0.4167975785775157    
     1.750455239325652        0.4131676237467599    
     1.761748498934204        0.4095497123916206    
     1.773041758542757        0.4059445314266255    
     1.784335018151310        0.4023527349724659    
     1.795628277759862        0.3987749455164528    
     1.806921537368415        0.3952117550341501    
     1.818214796976967        0.3916637260734901    
     1.829508056585520        0.3881313928026410    
     1.840801316194072        0.3846152620228369    
     1.852094575802625        0.3811158141473504    
     1.863387835411178        0.3776335041477405    
     1.874681095019730        0.3741687624684669    
     1.885974354628283        0.3707219959109314    
     1.897267614236835        0.3672935884879598    
     1.908560873845388        0.3638839022497140    
     1.919854133453941        0.3604932780819806    
     1.931147393062493        0.3571220364777537    
     1.942440652671046        0.3537704782830003    
     1.953733912279598        0.3504388854174593    
     1.965027171888151        0.3471275215713089    
     1.976320431496704        0.3438366328784903    
     1.987613691105256        0.3405664485674706    
     1.998906950713809        0.3373171815901799    
     2.010200210322362        0.3340890292298514    
     2.021493469930914        0.3308821736884565    
     2.032786729539466        0.3276967826544088    
     2.044079989148019        0.3245330098511857    
     2.055373248756572        0.3213909955675007    
     2.066666508365124        0.3182708671696294    
     2.077959767973677        0.3151727395964785    
     2.089253027582230        0.3120967158379657    
     2.100546287190782        0.3090428873972598    
     2.111839546799334        0.3060113347374120    
     2.123132806407887        0.3030021277128894    
     2.134426066016440        0.3000153259865114    
     2.145719325624992        0.2970509794322632    
     2.157012585233545        0.2941091285244563    
     2.168305844842098        0.2911898047136800    
     2.179599104450650        0.2882930307899801    
     2.190892364059203        0.2854188212336847    
     2.202185623667755        0.2825671825542818    
     2.213478883276308        0.2797381136177416    
     2.224772142884861        0.2769316059626642    
     2.236065402493413        0.2741476441056169    
     2.247358662101966        0.2713862058360212    
     2.258651921710519        0.2686472625009259    
     2.269945181319071        0.2659307792800070    
     2.281238440927623        0.2632367154511081    
     2.292531700536176        0.2605650246466357    
     2.303824960144729        0.2579156551011119    
     2.315118219753281        0.2552885498901689    
     2.326411479361834        0.2526836471612742    
     2.337704738970387        0.2501008803564541    
     2.348997998578939        0.2475401784272775    
     2.360291258187492        0.2450014660423606    
     2.371584517796044        0.2424846637876310    
     2.382877777404597        0.2399896883595954    
     2.394171037013149        0.2375164527518393    
     2.405464296621702        0.2350648664349799    
     2.416757556230255        0.2326348355302921    
     2.428050815838807        0.2302262629772114    
     2.439344075447360        0.2278390486949181    
     2.450637335055912        0.2254730897381990    
     2.461930594664465        0.2231282804477727    
     2.473223854273018        0.2208045125952636    
     2.484517113881570        0.2185016755229995    
     2.495810373490123        0.2162196562788047    
     2.507103633098676        0.2139583397459556    
     2.518396892707228        0.2117176087684546    
     2.529690152315780        0.2094973442717812    
     2.540983411924333        0.2072974253792692    
     2.552276671532886        0.2051177295242521    
     2.563569931141438        0.2029581325581198    
     2.574863190749991        0.2008185088544240    
     2.586156450358544        0.1986987314091554    
     2.597449709967096        0.1965986719373292    
     2.608742969575649        0.1945182009659972    
     2.620036229184201        0.1924571879238023    
     2.631329488792754        0.1904155012271976    
     2.642622748401307        0.1883930083634346    
     2.653916008009859        0.1863895759704304    
     2.665209267618412        0.1844050699136199    
     2.676502527226964        0.1824393553598893    
     2.687795786835517        0.1804922968486942    
     2.699089046444069        0.1785637583604487    
     2.710382306052622        0.1766536033822845    
     2.721675565661175        0.1747616949712635    
     2.732968825269727        0.1728878958151284    
     2.744262084878280        0.1710320682906799    
     2.755555344486833        0.1691940745198509    
     2.766848604095385        0.1673737764235644    
     2.778141863703937        0.1655710357734428    
     2.789435123312490        0.1637857142414442    
     2.800728382921043        0.1620176734474963    
     2.812021642529595        0.1602667750051913    
     2.823314902138148        0.1585328805656134    
     2.834608161746701        0.1568158518593555    
     2.845901421355253        0.1551155507367923    
     2.857194680963806        0.1534318392066654    
     2.868487940572358        0.1517645794730379    
     2.879781200180911        0.1501136339706765    
     2.891074459789464        0.1484788653989114    
     2.902367719398016        0.1468601367540282    
     2.913660979006569        0.1452573113602400    
     2.924954238615121        0.1436702528992926    
     2.936247498223674        0.1420988254387417    
     2.947540757832226        0.1405428934589577    
     2.958834017440779        0.1390023218788922    
     2.970127277049332        0.1374769760806561    
     2.981420536657884        0.1359667219329475    
     2.992713796266437        0.1344714258133673    
     3.004007055874990        0.1329909546296656    
     3.015300315483542        0.1315251758399507    
     3.026593575092094        0.1300739574719027    
     3.037886834700647        0.1286371681410198    
     3.049180094309200        0.1272146770679377    
     3.060473353917752        0.1258063540948498    
     3.071766613526305        0.1244120697010613    
     3.083059873134858        0.1230316950177090    
     3.094353132743410        0.1216651018416742    
     3.105646392351963        0.1203121626487177    
     3.116939651960515        0.1189727506058670    
     3.128232911569068        0.1176467395830778    
     3.139526171177621        0.1163340041641996    
     3.150819430786173        0.1150344196572697    
     3.162112690394726        0.1137478621041561    
     3.173405950003279        0.1124742082895786    
     3.184699209611831        0.1112133357495262    
     3.195992469220383        0.1099651227790939    
     3.207285728828936        0.1087294484397607    
     3.218578988437489        0.1075061925661288    
     3.229872248046041        0.1062952357721439    
     3.241165507654594        0.1050964594568152    
     3.252458767263147        0.1039097458094500    
     3.263752026871699        0.1027349778144294    
     3.275045286480252        0.1015720392555399    
     3.286338546088804        0.1004208147198712    
     3.297631805697357        0.9928118960130111E-01
     3.308925065305909        0.9815305010358183E-01
     3.320218324914462        0.9703628324304514E-01
     3.331511584523015        0.9593077685093859E-01
     3.342804844131567        0.9483641957540737E-01
     3.354098103740120        0.9375310088313718E-01
     3.365391363348672        0.9268071106066868E-01
     3.376684622957225        0.9161914121539820E-01
     3.387977882565778        0.9056828327627542E-01
     3.399271142174330        0.8952802999421254E-01
     3.410564401782883        0.8849827494221356E-01
     3.421857661391436        0.8747891251523643E-01
     3.433150920999988        0.8646983792979909E-01
     3.444444180608540        0.8547094722333799E-01
     3.455737440217093        0.8448213725333258E-01
     3.467030699825646        0.8350330569620056E-01
     3.478323959434198        0.8253435104597846E-01
     3.489617219042751        0.8157517261279294E-01
     3.500910478651304        0.8062567052113342E-01
     3.512203738259856        0.7968574570793446E-01
     3.523496997868409        0.7875529992047389E-01
     3.534790257476961        0.7783423571409838E-01
     3.546083517085514        0.7692245644978114E-01
     3.557376776694066        0.7601986629151974E-01
     3.568670036302619        0.7512637020358326E-01
     3.579963295911172        0.7424187394761107E-01
     3.591256555519724        0.7336628407957564E-01
     3.602549815128277        0.7249950794661106E-01
     3.613843074736829        0.7164145368371654E-01
     3.625136334345382        0.7079203021033917E-01
     3.636429593953935        0.6995114722684219E-01
     3.647722853562487        0.6911871521086509E-01
     3.659016113171040        0.6829464541357985E-01
     3.670309372779593        0.6747884985584923E-01
     3.681602632388145        0.6667124132429182E-01
     3.692895891996697        0.6587173336725893E-01
     3.704189151605250        0.6508024029072844E-01
     3.715482411213803        0.6429667715411830E-01
     3.726775670822355        0.6352095976602665E-01
     3.738068930430908        0.6275300467990108E-01
     3.749362190039461        0.6199272918964140E-01
     3.760655449648013        0.6124005132514024E-01
     3.771948709256566        0.6049488984776440E-01
     3.783241968865118        0.5975716424578183E-01
     3.794535228473671        0.5902679472973722E-01
     3.805828488082224        0.5830370222777853E-01
     3.817121747690776        0.5758780838093983E-01
     3.828415007299329        0.5687903553838160E-01
     3.839708266907881        0.5617730675259310E-01
     3.851001526516434        0.5548254577455870E-01
     3.862294786124986        0.5479467704889077E-01
     3.873588045733539        0.5411362570893371E-01
     3.884881305342092        0.5343931757183970E-01
     3.896174564950644        0.5277167913361878E-01
     3.907467824559197        0.5211063756416752E-01
     3.918761084167750        0.5145612070227692E-01
     3.930054343776302        0.5080805705062231E-01
     3.941347603384854        0.5016637577073723E-01
     3.952640862993407        0.4953100667797383E-01
     3.963934122601960        0.4890188023645180E-01
     3.975227382210512        0.4827892755399668E-01
     3.986520641819065        0.4766208037707093E-01
     3.997813901427618        0.4705127108569832E-01
     4.009107161036170        0.4644643268838450E-01
     4.020400420644723        0.4584749881703391E-01
     4.031693680253276        0.4525440372186570E-01
     4.042986939861828        0.4466708226633102E-01
     4.054280199470380        0.4408546992202975E-01
     4.065573459078933        0.4350950276363237E-01
     4.076866718687485        0.4293911746380607E-01
     4.088159978296038        0.4237425128814506E-01
     4.099453237904591        0.4181484209010967E-01
     4.110746497513143        0.4126082830597280E-01
     4.122039757121696        0.4071214894977528E-01
     4.133333016730249        0.4016874360829256E-01
     4.144626276338801        0.3963055243601184E-01
     4.155919535947354        0.3909751615012242E-01
     4.167212795555907        0.3856957602551862E-01
     4.178506055164459        0.3804667388981755E-01
     4.189799314773012        0.3752875211839179E-01
     4.201092574381565        0.3701575362941779E-01
     4.212385833990117        0.3650762187894142E-01
     4.223679093598669        0.3600430085596062E-01
     4.234972353207222        0.3550573507752616E-01
     4.246265612815774        0.3501186958386194E-01
     4.257558872424327        0.3452264993350407E-01
     4.268852132032880        0.3403802219846031E-01
     4.280145391641432        0.3355793295939045E-01
     4.291438651249985        0.3308232930080766E-01
     4.302731910858538        0.3261115880630179E-01
     4.314025170467090        0.3214436955378485E-01
     4.325318430075643        0.3168191011075960E-01
     4.336611689684196        0.3122372952961075E-01
     4.347904949292748        0.3076977734292033E-01
     4.359198208901301        0.3032000355880686E-01
     4.370491468509853        0.2987435865628889E-01
     4.381784728118405        0.2943279358067345E-01
     4.393077987726958        0.2899525973896913E-01
     4.404371247335511        0.2856170899532546E-01
     4.415664506944063        0.2813209366649668E-01
     4.426957766552616        0.2770636651733253E-01
     4.438251026161169        0.2728448075629499E-01
     4.449544285769721        0.2686639003100074E-01
     4.460837545378274        0.2645204842379096E-01
     4.472130804986826        0.2604141044732825E-01
     4.483424064595379        0.2563443104021908E-01
     4.494717324203932        0.2523106556266505E-01
     4.506010583812484        0.2483126979214079E-01
     4.517303843421037        0.2443499991909864E-01
     4.528597103029590        0.2404221254270218E-01
     4.539890362638142        0.2365286466658631E-01
     4.551183622246694        0.2326691369464572E-01
     4.562476881855247        0.2288431742685077E-01
     4.573770141463799        0.2250503405509172E-01
     4.585063401072352        0.2212902215905040E-01
     4.596356660680905        0.2175624070210031E-01
     4.607649920289457        0.2138664902723433E-01
     4.618943179898010        0.2102020685302113E-01
     4.630236439506563        0.2065687426958855E-01
     4.641529699115115        0.2029661173463619E-01
     4.652822958723668        0.1993938006947557E-01
     4.664116218332221        0.1958514045509778E-01
     4.675409477940773        0.1923385442827041E-01
     4.686702737549326        0.1888548387766091E-01
     4.697995997157879        0.1853999103998934E-01
     4.709289256766430        0.1819733849620799E-01
     4.720582516374983        0.1785748916770907E-01
     4.731875775983536        0.1752040631256071E-01
     4.743169035592088        0.1718605352176958E-01
     4.754462295200641        0.1685439471557248E-01
     4.765755554809194        0.1652539413975400E-01
     4.777048814417746        0.1619901636199282E-01
     4.788342074026299        0.1587522626823483E-01
     4.799635333634852        0.1555398905909337E-01
     4.810928593243404        0.1523527024627698E-01
     4.822221852851957        0.1491903564904388E-01
     4.833515112460510        0.1460525139068354E-01
     4.844808372069062        0.1429388389502493E-01
     4.856101631677615        0.1398489988297132E-01
     4.867394891286168        0.1367826636906229E-01
     4.878688150894719        0.1337395065806097E-01
     4.889981410503272        0.1307192034156870E-01
     4.901274670111825        0.1277214329466520E-01
     4.912567929720377        0.1247458767257472E-01
     4.923861189328930        0.1217922190735837E-01
     4.935154448937483        0.1188601470463149E-01
     4.946447708546035        0.1159493504030770E-01
     4.957740968154588        0.1130595215736686E-01
     4.969034227763141        0.1101903556264943E-01
     4.980327487371693        0.1073415502367536E-01
     4.991620746980246        0.1045128056548785E-01
     5.002914006588798        0.1017038246752203E-01
     5.014207266197351        0.9891431260497817E-02
     5.025500525805904        0.9614397723337959E-02
     5.036793785414456        0.9339252880109002E-02
     5.048087045023008        0.9065967996987915E-02
     5.059380304631561        0.8794514579250894E-02
     5.070673564240114        0.8524864368287172E-02
     5.081966823848666        0.8256989338635461E-02
     5.093260083457219        0.7990861695044075E-02
     5.104553343065771        0.7726453869555181E-02
     5.115846602674324        0.7463738520205123E-02
     5.127139862282877        0.7202688618690689E-02
     5.138433121891429        0.6943278548272217E-02
     5.149726381499982        0.6685488930750928E-02
     5.161019641108535        0.6429317152903335E-02
     5.172312900717087        0.6174791502506704E-02
     5.183606160325640        0.5921984472533039E-02
     5.194899419934193        0.5671021794575624E-02
     5.206192679542744        0.5422085951223173E-02
     5.217485939151297        0.5175414581191462E-02
     5.228779198759850        0.4931294974804871E-02
     5.240072458368402        0.4690056011442347E-02
     5.251365717976955        0.4452058727681597E-02
     5.262658977585508        0.4217686435055309E-02
     5.273952237194060        0.3987335037252519E-02
     5.285245496802613        0.3761403971060142E-02
     5.296538756411166        0.3540288022820552E-02
     5.307832016019718        0.3324370147785808E-02
     5.319125275628271        0.3114015334090658E-02
     5.330418535236824        0.2909565496556874E-02
     5.341711794845376        0.2711335350081193E-02
     5.353005054453929        0.2519609191613689E-02
     5.364298314062482        0.2334638509039911E-02
     5.375591573671033        0.2156640331255373E-02
     5.386884833279586        0.1985796234014147E-02
     5.398178092888139        0.1822251919092619E-02
     5.409471352496691        0.1666117288823774E-02
     5.420764612105244        0.1517466943351737E-02
     5.432057871713797        0.1376341033519876E-02
     5.443351131322349        0.1242746407768479E-02
     5.454644390930902        0.1116657996513166E-02
     5.465937650539455        0.9980203819671910E-03
     5.477230910148007        0.8867495050109694E-03
     5.488524169756560        0.7827344631620922E-03
     5.499817429365113        0.6858393544254775E-03
     5.511110688973665        0.5959051198891786E-03
     5.522403948582218        0.5127513316987925E-03
     5.533697208190770        0.4361778592859649E-03
     5.544990467799322        0.3659663189965954E-03
     5.556283727407875        0.3018811568546596E-03
     5.567576987016428        0.2436700998854335E-03
     5.578870246624980        0.1910634608466681E-03
     5.590163506233533        0.1437711810468809E-03
     5.601456765842086        0.1014748690325848E-03
     5.612750025450638        0.6380682243959939E-04
     5.624043285059191        0.3028537680191308E-04
     5.635336544667743         0.000000000000000    
  0  2  2  0  0.000000   #orbital l, n, z, is_polarized, population
 500    0.7655042071708468E-02     3.819865993782526     # npts, delta, cutoff
     0.000000000000000        0.2041466972288712    
    0.7655042071708468E-02    0.2042369925908236    
    0.1531008414341694E-01    0.2045154323268472    
    0.2296512621512541E-01    0.2049791385743454    
    0.3062016828683387E-01    0.2056275688877165    
    0.3827521035854234E-01    0.2064599682309620    
    0.4593025243025081E-01    0.2074753717689528    
    0.5358529450195928E-01    0.2086726090413396    
    0.6124033657366774E-01    0.2100503090632022    
    0.6889537864537622E-01    0.2116069062603453    
    0.7655042071708468E-01    0.2133406471771199    
    0.8420546278879315E-01    0.2152495978947448    
    0.9186050486050162E-01    0.2173316520937719    
    0.9951554693221008E-01    0.2195845396894805    
    0.1071705890039186        0.2220058359645256    
    0.1148256310756270        0.2245929711193524    
    0.1224806731473355        0.2273432401578621    
    0.1301357152190440        0.2302538130235779    
    0.1377907572907524        0.2333217449001913    
    0.1454457993624609        0.2365439865898614    
    0.1531008414341694        0.2399173948829990    
    0.1607558835058778        0.2434387428344959    