<preamble>

<basis_specs>
===============================================================================
Ba                   Z=  56    Mass=  137.33        Charge= 0.17977+309
Lmxo=1 Lmxkb= 2    BasisType=split      Semic=T
L=0  Nsemic=1  Cnfigmx=6
          i=1  nzeta=1  polorb=0  (5s)  (semicore shell)
            splnorm:   0.15000    
               vcte:    40.000    
               rinn:    3.7512    
               qcoe:    0.0000    
               qyuk:    0.0000    
               qwid:   0.10000E-01
                rcs:    4.1638    
            lambdas:    1.0000    
          i=2  nzeta=2  polorb=0  (6s)  (to be polarized non-perturbatively)
            splnorm:   0.15000    
               vcte:    40.000    
               rinn:    8.8947    
               qcoe:    0.0000    
               qyuk:    0.0000    
               qwid:   0.10000E-01
                rcs:    9.8731      7.4745    
            lambdas:    1.0000      1.0000    
L=1  Nsemic=1  Cnfigmx=6
          i=1  nzeta=1  polorb=0  (5p)  (semicore shell)
            splnorm:   0.15000    
               vcte:    40.000    
               rinn:    4.4480    
               qcoe:    0.0000    
               qyuk:    0.0000    
               qwid:   0.10000E-01
                rcs:    4.9372    
            lambdas:    1.0000    
          i=2  nzeta=1  polorb=0  (6p)  (non-perturbative polarization shell)
            splnorm:   0.15000    
               vcte:    40.000    
               rinn:    8.8947    
               qcoe:    0.0000    
               qyuk:    0.0000    
               qwid:   0.10000E-01
                rcs:    9.8731    
            lambdas:    1.0000    
-------------------------------------------------------------------------------
L=0  Nkbl=2  erefs: 0.17977+309 0.17977+309
L=1  Nkbl=2  erefs: 0.17977+309 0.17977+309
L=2  Nkbl=1  erefs: 0.17977+309
===============================================================================
</basis_specs>

<pseudopotential_header>
 Ba pw nrl pcec
 ONCVPSP-3.2018-03-09Hamann's oncvpsp                        
 5s 2.00  r= 2.15/5p 6.00  r= 1.91/5d 0.00  r= 2.15/                    5s:5p:6s:
</pseudopotential_header>
</preamble>
Ba                            # Symbol
Ba                            # Label
   56                         # Atomic number
     10.0000000000                             # Valence charge
     137.330000000        # Mass 
     83.9690093814        # Self energy 
   1   5                      # Lmax for basis, no. of nl orbitals 
   2   6                      # Lmax for projectors, no. of nl KB projectors
# PAOs:__________________________
  0  5  1  0  2.000000   #orbital l, n, z, is_polarized, population
 500    0.8344313019208023E-02     4.163812196584804     # npts, delta, cutoff
     0.000000000000000        0.6464871877870805E-01
    0.8344313019208023E-02    0.6473197802179187E-01
    0.1668862603841605E-01    0.6498493094175394E-01
    0.2503293905762407E-01    0.6540634786772968E-01
    0.3337725207683209E-01    0.6599597042372014E-01
    0.4172156509604012E-01    0.6675343755870995E-01
    0.5006587811524814E-01    0.6767828561899539E-01
    0.5841019113445616E-01    0.6876994868654171E-01
    0.6675450415366418E-01    0.7002775902150708E-01
    0.7509881717287220E-01    0.7145094759045995E-01
    0.8344313019208023E-01    0.7303864467608363E-01
    0.9178744321128826E-01    0.7478988056668692E-01
    0.1001317562304963        0.7670358632441468E-01
    0.1084760692497043        0.7877859463117869E-01
    0.1168203822689123        0.8101364071132716E-01
    0.1251646952881204        0.8340736333003294E-01
    0.1335090083073284        0.8595830586631863E-01
    0.1418533213265364        0.8866491745958045E-01
    0.1501976343457444        0.9152555422840382E-01
    0.1585419473649524        0.9453848056040233E-01
    0.1668862603841605        0.9770187047174336E-01
    0.1752305734033685        0.1010138090349621    
    0.1835748864225765        0.1044722938735999    
    0.1919191994417845        0.1080752367221390    
    0.2002635124609926        0.1118204650496479    
    0.2086078254802006        0.1157057237454847    
    0.2169521384994086        0.1197286768653531    
    0.2252964515186166        0.1238869094359444    
    0.2336407645378246        0.1281779293163492    
    0.2419850775570327        0.1325991691143641    
    0.2503293905762407        0.1371479881557716    
    0.2586737035954487        0.1418216745046245    
    0.2670180166146567        0.1466174470325172    
    0.2753623296338648        0.1515324575347890    
    0.2837066426530728        0.1565637928915576    
    0.2920509556722808        0.1617084772714537    
    0.3003952686914888        0.1669634743758834    
    0.3087395817106969        0.1723256897216185    
    0.3170838947299049        0.1777919729594893    
    0.3254282077491129        0.1833591202269220    
    0.3337725207683209        0.1890238765320468    
    0.3421168337875289        0.1947829381670769    
    0.3504611468067370        0.2006329551486476    
    0.3588054598259450        0.2065705336827879    
    0.3671497728451530        0.2125922386521852    
    0.3754940858643611        0.2186945961233988    
    0.3838383988835691        0.2248740958716685    
    0.3921827119027771        0.2311271939209668    
    0.4005270249219851        0.2374503150969414    
    0.4088713379411931        0.2438398555903964    
    0.4172156509604011        0.2502921855289719    
    0.4255599639796092        0.2568036515546860    
    0.4339042769988172        0.2633705794050136    
    0.4422485900180252        0.2699892764951992    
    0.4505929030372333        0.2766560344995069    
    0.4589372160564413        0.2833671319291369    
    0.4672815290756493        0.2901188367045599    
    0.4756258420948573        0.2969074087200421    
    0.4839701551140653        0.3037291023981600    
    0.4923144681332733        0.3105801692321398    
    0.5006587811524814        0.3174568603138798    
    0.5090030941716894        0.3243554288455504    
    0.5173474071908974        0.3312721326327039    
    0.5256917202101055        0.3382032365568657    
    0.5340360332293135        0.3451450150256062    
    0.5423803462485215        0.3520937543981583    
    0.5507246592677295        0.3590457553846589    
    0.5590689722869375        0.3659973354171601    
    0.5674132853061455        0.3729448309906009    
    0.5757575983253536        0.3798845999719614    
    0.5841019113445616        0.3868130238758943    
    0.5924462243637696        0.3937265101051614    
    0.6007905373829776        0.4006214941542661    
    0.6091348504021857        0.4074944417747265    
    0.6174791634213938        0.4143418511004738    
    0.6258234764406018        0.4211602547319434    
    0.6341677894598098        0.4279462217774548    
    0.6425121024790178        0.4346963598505541    
    0.6508564154982258        0.4414073170220391    
    0.6592007285174338        0.4480757837254553    
    0.6675450415366418        0.4546984946149066    
    0.6758893545558499        0.4612722303740757    
    0.6842336675750579        0.4677938194754258    
    0.6925779805942659        0.4742601398886151    
    0.7009222936134739        0.4806681207371870    
    0.7092666066326819        0.4870147439027110    
    0.7176109196518899        0.4932970455755578    
    0.7259552326710980        0.4995121177515939    
    0.7342995456903061        0.5056571096741190    
    0.7426438587095141        0.5117292292204346    
    0.7509881717287221        0.5177257442324962    
    0.7593324847479301        0.5236439837911722    
    0.7676767977671382        0.5294813394336523    
    0.7760211107863462        0.5352352663136676    
    0.7843654238055542        0.5409032843041844    
    0.7927097368247622        0.5464829790423378    
    0.8010540498439702        0.5519720029163896    
    0.8093983628631782        0.5573680759945907    
    0.8177426758823862        0.5626689868958413    
    0.8260869889015943        0.5678725936021446    
    0.8344313019208023        0.5729768242128456    
    0.8427756149400103        0.5779796776407645    
    0.8511199279592183        0.5828792242503290    
    0.8594642409784263        0.5876736064378961    
    0.8678085539976343        0.5923610391544829    
    0.8761528670168425        0.5969398103711980    
    0.8844971800360505        0.6014082814876719    
    0.8928414930552585        0.6057648876838810    
    0.9011858060744665        0.6100081382157673    
    0.9095301190936745        0.6141366166551079    
    0.9178744321128826        0.6181489810741331    
    0.9262187451320906        0.6220439641754504    
    0.9345630581512986        0.6258203733678179    
    0.9429073711705066        0.6294770907884247    
    0.9512516841897146        0.6330130732722943    
    0.9595959972089226        0.6364273522695216    
    0.9679403102281307        0.6397190337110547    
    0.9762846232473387        0.6428872978237824    
    0.9846289362665467        0.6459313988956993    
    0.9929732492857547        0.6488506649919712    
     1.001317562304963        0.6516444976227390    
     1.009661875324171        0.6543123713635283    
     1.018006188343379        0.6568538334291587    
     1.026350501362587        0.6592685032020627    
     1.034694814381795        0.6615560717159578    
     1.043039127401003        0.6637163010958315    
     1.051383440420211        0.6657490239552123    
     1.059727753439419        0.6676541427517247    
     1.068072066458627        0.6694316291019442    
     1.076416379477835        0.6710815230565798    
     1.084760692497043        0.6726039323370187    
     1.093105005516251        0.6739990315343041    
     1.101449318535459        0.6752670612715969    
     1.109793631554667        0.6764083273312096    
     1.118137944573875        0.6774231997472961    
     1.126482257593083        0.6783121118652911    
     1.134826570612291        0.6790755593692025    
     1.143170883631499        0.6797140992778616    
     1.151515196650707        0.6802283489112522    
     1.159859509669915        0.6806189848280199    
     1.168203822689123        0.6808867417353004    
     1.176548135708331        0.6810324113719687    
     1.184892448727539        0.6810568413664436    
     1.193236761746747        0.6809609340701686    
     1.201581074765955        0.6807456453678822    
     1.209925387785163        0.6804119834658061    
     1.218269700804371        0.6799610076588688    
     1.226614013823579        0.6793938270780657    
     1.234958326842788        0.6787115994190858    
     1.243302639861996        0.6779155296532900    
     1.251646952881204        0.6770068687221612    
     1.259991265900412        0.6759869122162994    
     1.268335578919620        0.6748569990400705    
     1.276679891938828        0.6736185100629726    
     1.285024204958036        0.6722728667588044    
     1.293368517977244        0.6708215298336933    
     1.301712830996452        0.6692659978440456    
     1.310057144015660        0.6676078058054637    
     1.318401457034868        0.6658485237936665    
     1.326745770054076        0.6639897555384460    
     1.335090083073284        0.6620331370116738    
     1.343434396092492        0.6599803351168506    
     1.351778709111700        0.6578330466724606    
     1.360123022130908        0.6555929951226609    
     1.368467335150116        0.6532619312074305    
     1.376811648169324        0.6508416307909459    
     1.385155961188532        0.6483338934382598    
     1.393500274207740        0.6457405409892638    
     1.401844587226948        0.6430634161344482    
     1.410188900246156        0.6403043809933651    
     1.418533213265364        0.6374653156967067    
     1.426877526284572        0.6345481169728809    
     1.435221839303780        0.6315546967399599    
     1.443566152322988        0.6284869807038646    
     1.451910465342196        0.6253469069636349    
     1.460254778361404        0.6221364246246169    
     1.468599091380612        0.6188574924203974    
     1.476943404399820        0.6155120773442811    
     1.485287717419028        0.6121021532911169    
     1.493632030438236        0.6086296997102469    
     1.501976343457444        0.6050967002703467    
     1.510320656476652        0.6015051415369089    
     1.518664969495860        0.5978570116630904    
     1.527009282515068        0.5941542988380262    
     1.535353595534276        0.5903989883803106    
     1.543697908553484        0.5865930643310491    
     1.552042221572692        0.5827385075631121    
     1.560386534591900        0.5788372942432108    
     1.568730847611108        0.5748913946178525    
     1.577075160630316        0.5709027718174162    
     1.585419473649524        0.5668733806789686    
     1.593763786668732        0.5628051665884256    
     1.602108099687940        0.5587000643426476    
     1.610452412707148        0.5545599970320445    
     1.618796725726356        0.5503868749442486    
     1.627141038745564        0.5461825944893991    
     1.635485351764772        0.5419490371475627    
     1.643829664783981        0.5376880684388086    
     1.652173977803189        0.5334015369164198    
     1.660518290822397        0.5290912731837413    
     1.668862603841605        0.5247590889351017    
     1.677206916860813        0.5204067760212757    
     1.685551229880021        0.5160361055399069    
     1.693895542899229        0.5116488269513007    
     1.702239855918437        0.5072466672199908    
     1.710584168937645        0.5028313299824501    
     1.718928481956853        0.4984044947413070    
     1.727272794976061        0.4939678160864129    
     1.735617107995269        0.4895229229430824    
     1.743961421014477        0.4850714178478135    
     1.752305734033685        0.4806148762517755    
     1.760650047052893        0.4761548458523341    
     1.768994360072101        0.4716928459528635    
     1.777338673091309        0.4672303668510831    
     1.785682986110517        0.4627688692561213    
     1.794027299129725        0.4583097837345089    
     1.802371612148933        0.4538545101852730    
     1.810715925168141        0.4494044173442854    
     1.819060238187349        0.4449608423180007    
     1.827404551206557        0.4405250901466971    
     1.835748864225765        0.4360984333973206    
     1.844093177244973        0.4316821117859984    
     1.852437490264181        0.4272773318302805    
     1.860781803283389        0.4228852665311420    
     1.869126116302597        0.4185070550847609    
     1.877470429321805        0.4141438026240580    
     1.885814742341013        0.4097965799899747    
     1.894159055360221        0.4054664235324411    
     1.902503368379429        0.4011543349409548    
     1.910847681398637        0.3968612811046863    
     1.919191994417845        0.3925881940020007    
     1.927536307437053        0.3883359706192513    
     1.935880620456261        0.3841054728986999    
     1.944224933475469        0.3798975277153852    
     1.952569246494677        0.3757129268827400    
     1.960913559513885        0.3715524271867451    
     1.969257872533093        0.3674167504483741    
     1.977602185552301        0.3633065836140752    
     1.985946498571509        0.3592225788740113    
     1.994290811590717        0.3551653538077467    
     2.002635124609926        0.3511354915570788    
     2.010979437629134        0.3471335410256537    
     2.019323750648342        0.3431600171050186    
     2.027668063667550        0.3392154009267276    
     2.036012376686758        0.3353001401400927    
     2.044356689705966        0.3314146492151781    
     2.052701002725174        0.3275593097705770    
     2.061045315744382        0.3237344709255373    
     2.069389628763590        0.3199404496759431    
     2.077733941782798        0.3161775312936750    
     2.086078254802006        0.3124459697306981    
     2.094422567821214        0.3087459880020042    
     2.102766880840422        0.3050777788039178    
     2.111111193859630        0.3014415051594999    
     2.119455506878838        0.2978373010875733    
     2.127799819898046        0.2942652713357342    
     2.136144132917254        0.2907254913030655    
     2.144488445936462        0.2872180075618174    
     2.152832758955670        0.2837428403517505    
     2.161177071974878        0.2802999868963859    
     2.169521384994086        0.2768894249659778    
     2.177865698013294        0.2735111165949997    
     2.186210011032502        0.2701650114989538    
     2.194554324051710        0.2668510500775035    
     2.202898637070918        0.2635691644357994    
     2.211242950090126        0.2603192782864820    
     2.219587263109334        0.2571013064299856    
     2.227931576128542        0.2539151548255978    
     2.236275889147750        0.2507607212002882    
     2.244620202166958        0.2476378955569946    
     2.252964515186166        0.2445465606071426    
     2.261308828205374        0.2414865920280881    
     2.269653141224582        0.2384578587782361    
     2.277997454243790        0.2354602234072587    
     2.286341767262998        0.2324935423589456    
     2.294686080282206        0.2295576662637204    
     2.303030393301414        0.2266524402216387    
     2.311374706320622        0.2237777040762955    
     2.319719019339830        0.2209332926798858    
     2.328063332359038        0.2181190361496715    
     2.336407645378246        0.2153347601160889    
     2.344751958397454        0.2125802859627250    
     2.353096271416662        0.2098554310584009    
     2.361440584435870        0.2071600089815721    
     2.369784897455078        0.2044938297372690    
     2.378129210474286        0.2018566999667854    
     2.386473523493494        0.1992484231503237    
     2.394817836512702        0.1966687998027900    
     2.403162149531910        0.1941176276629426    
     2.411506462551119        0.1915947018760821    
     2.419850775570327        0.1890998151704625    
     2.428195088589535        0.1866327580276115    
     2.436539401608743        0.1841933188467353    
     2.444883714627951        0.1817812841033751    
     2.453228027647159        0.1793964385024844    
     2.461572340666367        0.1770385651260938    
     2.469916653685575        0.1747074455757149    
     2.478260966704783        0.1724028601096431    
     2.486605279723991        0.1701245877753070    
     2.494949592743199        0.1678724065368124    
     2.503293905762407        0.1656460933978224    
     2.511638218781615        0.1634454245199092    
     2.519982531800823        0.1612701753365192    
     2.528326844820031        0.1591201206626773    
     2.536671157839239        0.1569950348005597    
     2.545015470858447        0.1548946916410590    
     2.553359783877655        0.1528188647614642    
     2.561704096896863        0.1507673275193714    
     2.570048409916071        0.1487398531429400    
     2.578392722935279        0.1467362148176062    
     2.586737035954487        0.1447561857693607    
     2.595081348973695        0.1427995393446985    
     2.603425661992903        0.1408660490873404    
     2.611769975012111        0.1389554888118249    
     2.620114288031319        0.1370676326740723    
     2.628458601050527        0.1352022552390080    
     2.636802914069735        0.1333591315453427    
     2.645147227088943        0.1315380371675946    
     2.653491540108151        0.1297387482754390    
     2.661835853127359        0.1279610416904746    
     2.670180166146567        0.1262046949404805    
     2.678524479165775        0.1244694863112497    
     2.686868792184983        0.1227551948960725    
     2.695213105204191        0.1210616006429448    
     2.703557418223399        0.1193884843995743    
     2.711901731242607        0.1177356279562581    
     2.720246044261815        0.1161028140866922    
     2.728590357281024        0.1144898265867892    
     2.736934670300232        0.1128964503115632    
     2.745278983319440        0.1113224712101437    
     2.753623296338648        0.1097676763589856    
     2.761967609357856        0.1082318539933252    
     2.770311922377064        0.1067147935369495    
     2.778656235396272        0.1052162856303273    
     2.787000548415480        0.1037361221571599    
     2.795344861434688        0.1022740962694035    
     2.803689174453896        0.1008300024108119    
     2.812033487473104        0.9940363633905512E-01
     2.820377800492312        0.9799479514645240E-01
     2.828722113511520        0.9660327727937645E-01
     2.837066426530728        0.9522888255636794E-01
     2.845410739549936        0.9387141218500554E-01
     2.853755052569144        0.9253066877757535E-01
     2.862099365588352        0.9120645636557960E-01
     2.870443678607560        0.8989858041312646E-01
     2.878787991626768        0.8860684782923776E-01
     2.887132304645976        0.8733106697911514E-01
     2.895476617665184        0.8607104769439781E-01
     2.903820930684392        0.8482660128245262E-01
     2.912165243703600        0.8359754053472428E-01
     2.920509556722808        0.8238367973418514E-01
     2.928853869742016        0.8118483466191506E-01
     2.937198182761224        0.8000082260284014E-01
     2.945542495780432        0.7883146235066554E-01
     2.953886808799640        0.7767657421202849E-01
     2.962231121818848        0.7653598000990146E-01
     2.970575434838056        0.7540950308627413E-01
     2.978919747857264        0.7429696830413877E-01
     2.987264060876472        0.7319820204880860E-01
     2.995608373895680        0.7211303222859095E-01
     3.003952686914888        0.7104128827484275E-01
     3.012296999934096        0.6998280114143036E-01
     3.020641312953305        0.6893740330361776E-01
     3.028985625972513        0.6790492875640501E-01
     3.037329938991721        0.6688521301233874E-01
     3.045674252010929        0.6587809309881706E-01
     3.054018565030137        0.6488340755490569E-01
     3.062362878049345        0.6390099642769007E-01
     3.070707191068553        0.6293070126817887E-01
     3.079051504087761        0.6197236512677780E-01
     3.087395817106969        0.6102583254835296E-01
     3.095740130126177        0.6009094956690257E-01
     3.104084443145385        0.5916756369984785E-01
     3.112428756164593        0.5825552394196715E-01
     3.120773069183801        0.5735468075898455E-01
     3.129117382203009        0.5646488608082738E-01
     3.137461695222217        0.5558599329457160E-01
     3.145806008241425        0.5471785723708631E-01
     3.154150321260633        0.5386033418739064E-01
     3.162494634279841        0.5301328185873964E-01
     3.170838947299049        0.5217655939045039E-01
     3.179183260318257        0.5135002733947837E-01
     3.187527573337465        0.5053354767176284E-01
     3.195871886356673        0.4972698375334473E-01
     3.204216199375881        0.4893020034127560E-01
     3.212560512395089        0.4814306357432592E-01
     3.220904825414297        0.4736544096350003E-01
     3.229249138433505        0.4659720138237506E-01
     3.237593451452713        0.4583821505726846E-01
     3.245937764471921        0.4508835355724400E-01
     3.254282077491129        0.4434748978396907E-01
     3.262626390510337        0.4361549796142929E-01
     3.270970703529545        0.4289225362550923E-01
     3.279315016548753        0.4217763361344924E-01
     3.287659329567961        0.4147151605318548E-01
     3.296003642587169        0.4077378035258067E-01
     3.304347955606377        0.4008430718855421E-01
     3.312692268625585        0.3940297849611819E-01
     3.321036581644793        0.3872967745732610E-01
     3.329380894664001        0.3806428849014259E-01
     3.337725207683209        0.3740669723723800E-01
     3.346069520702417        0.3675679055471805E-01
     3.354413833721625        0.3611445650079011E-01
     3.362758146740833        0.3547958432437592E-01
     3.371102459760041        0.3485206445367502E-01
     3.379446772779249        0.3423178848468206E-01
     3.387791085798457        0.3361864916966811E-01
     3.396135398817665        0.3301254040562684E-01
     3.404479711836873        0.3241335722269154E-01
     3.412824024856081        0.3182099577252945E-01
     3.421168337875289        0.3123535331671504E-01
     3.429512650894497        0.3065632821508919E-01
     3.437856963913705        0.3008381991410673E-01
     3.446201276932913        0.2951772893517687E-01
     3.454545589952121        0.2895795686300118E-01
     3.462889902971329        0.2840440633391084E-01
     3.471234215990537        0.2785698102420878E-01
     3.479578529009746        0.2731558563852001E-01
     3.487922842028954        0.2678012589815013E-01
     3.496267155048162        0.2625050852946066E-01
     3.504611468067370        0.2572664125225898E-01
     3.512955781086578        0.2520843276820905E-01
     3.521300094105786        0.2469579274926399E-01
     3.529644407124994        0.2418863182612385E-01
     3.537988720144202        0.2368686157672084E-01
     3.546333033163410        0.2319039451473446E-01
     3.554677346182618        0.2269914407813817E-01
     3.563021659201826        0.2221302461778187E-01
     3.571365972221034        0.2173195138600835E-01
     3.579710285240242        0.2125584052531019E-01
     3.588054598259450        0.2078460905702521E-01
     3.596398911278658        0.2031817487007471E-01
     3.604743224297866        0.1985645670974455E-01
     3.613087537317074        0.1939937416651177E-01
     3.621431850336282        0.1894684766491733E-01
     3.629776163355490        0.1849879845248696E-01
     3.638120476374698        0.1805514858870166E-01
     3.646464789393906        0.1761582093401753E-01
     3.654809102413114        0.1718073913893855E-01
     3.663153415432322        0.1674982763314079E-01
     3.671497728451530        0.1632301161465144E-01
     3.679842041470738        0.1590021703908129E-01
     3.688186354489946        0.1548137060891360E-01
     3.696530667509154        0.1506639976284902E-01
     3.704874980528362        0.1465523266520702E-01
     3.713219293547570        0.1424779819538572E-01
     3.721563606566778        0.1384402593737906E-01
     3.729907919585986        0.1344384616935409E-01
     3.738252232605194        0.1304718985328569E-01
     3.746596545624402        0.1265398862465326E-01
     3.754940858643610        0.1226417478219572E-01
     3.763285171662818        0.1187768127772797E-01
     3.771629484682026        0.1149444170601811E-01
     3.779973797701234        0.1111439029646867E-01
     3.788318110720442        0.1073746200273552E-01
     3.796662423739650        0.1036359370524869E-01
     3.805006736758858        0.9992729532705054E-02
     3.813351049778066        0.9624832509966130E-02
     3.821695362797275        0.9259900280381568E-02
     3.830039675816483        0.8897980038909686E-02
     3.838383988835691        0.8539178883486187E-02
     3.846728301854899        0.8183668179703162E-02
     3.855072614874107        0.7831682357743404E-02
     3.863416927893315        0.7483513423989589E-02
     3.871761240912523        0.7139502643785615E-02
     3.880105553931731        0.6800030678135627E-02
     3.888449866950939        0.6465507165664472E-02
     3.896794179970147        0.6136360450067260E-02
     3.905138492989355        0.5813027909566084E-02
     3.913482806008563        0.5495947159004136E-02
     3.921827119027771        0.5185548261760833E-02
     3.930171432046979        0.4882246997349173E-02
     3.938515745066187        0.4586439170823618E-02
     3.946860058085395        0.4298495913089869E-02
     3.955204371104603        0.4018759899932309E-02
     3.963548684123811        0.3747542406948209E-02
     3.971892997143019        0.3485121113937950E-02
     3.980237310162227        0.3231738573074945E-02
     3.988581623181435        0.2987601258612289E-02
     3.996925936200643        0.2752879120761384E-02
     4.005270249219851        0.2527705571898254E-02
     4.013614562239059        0.2312177838846543E-02
     4.021958875258267        0.2106357620271781E-02
     4.030303188277475        0.1910271992871099E-02
     4.038647501296683        0.1723914513768689E-02
     4.046991814315891        0.1547246468956298E-02
     4.055336127335099        0.1380198218231707E-02
     4.063680440354307        0.1222670585006815E-02
     4.072024753373515        0.1074536233079233E-02
     4.080369066392723        0.9356409592172551E-03
     4.088713379411931        0.8058048049487190E-03
     4.097057692431139        0.6848228427506000E-03
     4.105402005450348        0.5724653986997529E-03
     4.113746318469556        0.4684772852456172E-03
     4.122090631488764        0.3725752101785544E-03
     4.130434944507972        0.2844415613655462E-03
     4.138779257527180        0.2037101696828724E-03
     4.147123570546388        0.1299313097073002E-03
     4.155467883565596        0.6246766877996206E-04
     4.163812196584804         0.000000000000000    
  0  6  1  0  2.000000   #orbital l, n, z, is_polarized, population
 500    0.1978584257247781E-01     9.873135443666426     # npts, delta, cutoff
     0.000000000000000        0.3022377769393990E-01
    0.1978584257247781E-01    0.3044048362962873E-01
    0.3957168514495561E-01    0.3109111951301984E-01
    0.5935752771743342E-01    0.3217221738930412E-01
    0.7914337028991122E-01    0.3367886889367793E-01
    0.9892921286238904E-01    0.3560426847818066E-01
    0.1187150554348668        0.3793977225334508E-01
    0.1385008980073446        0.4067496584802328E-01
    0.1582867405798224        0.4379773839331052E-01
    0.1780725831523003        0.4729436083112579E-01