<preamble>

<basis_specs>
===============================================================================
Bi                   Z=  83    Mass=  208.98        Charge= 0.17977+309
Lmxo=2 Lmxkb= 2    BasisType=split      Semic=T
L=0  Nsemic=0  Cnfigmx=6
          i=1  nzeta=2  polorb=0  (6s)
            splnorm:   0.15000    
               vcte:    40.000    
               rinn:    4.8824    
               qcoe:    0.0000    
               qyuk:    0.0000    
               qwid:   0.10000E-01
                rcs:    5.4248      3.7780    
            lambdas:    1.0000      1.0000    
L=1  Nsemic=0  Cnfigmx=6
          i=1  nzeta=2  polorb=0  (6p)  (to be polarized non-perturbatively)
            splnorm:   0.15000    
               vcte:    40.000    
               rinn:    6.7068    
               qcoe:    0.0000    
               qyuk:    0.0000    
               qwid:   0.10000E-01
                rcs:    7.4446      5.3332    
            lambdas:    1.0000      1.0000    
L=2  Nsemic=1  Cnfigmx=6
          i=1  nzeta=1  polorb=0  (5d)  (semicore shell)
            splnorm:   0.15000    
               vcte:    40.000    
               rinn:    3.2862    
               qcoe:    0.0000    
               qyuk:    0.0000    
               qwid:   0.10000E-01
                rcs:    3.6477    
            lambdas:    1.0000    
          i=2  nzeta=1  polorb=0  (6d)  (non-perturbative polarization shell)
            splnorm:   0.15000    
               vcte:    40.000    
               rinn:    6.7068    
               qcoe:    0.0000    
               qyuk:    0.0000    
               qwid:   0.10000E-01
                rcs:    7.4446    
            lambdas:    1.0000    
-------------------------------------------------------------------------------
L=0  Nkbl=1  erefs: 0.17977+309
L=1  Nkbl=1  erefs: 0.17977+309
L=2  Nkbl=2  erefs: 0.17977+309 0.17977+309
===============================================================================
</basis_specs>

<pseudopotential_header>
 Bi pw nrl pcec
 ONCVPSP-3.2018-03-09Hamann's oncvpsp                        
 6s 2.00  r= 2.43/6p 3.00  r= 2.52/5d10.00  r= 2.10/                    5d:6s:6p:
</pseudopotential_header>
</preamble>
Bi                            # Symbol
Bi                            # Label
   83                         # Atomic number
     15.0000000000                             # Valence charge
     208.980000000        # Mass 
     180.202764839        # Self energy 
   2   6                      # Lmax for basis, no. of nl orbitals 
   2   6                      # Lmax for projectors, no. of nl KB projectors
# PAOs:__________________________
  0  6  1  0  2.000000   #orbital l, n, z, is_polarized, population
 500    0.1087141993434398E-01     5.424838547237645     # npts, delta, cutoff
     0.000000000000000        0.7351603865817331E-01
    0.1087141993434398E-01    0.7357314244192029E-01
    0.2174283986868795E-01    0.7374990648723882E-01
    0.3261425980303193E-01    0.7404433792016041E-01
    0.4348567973737591E-01    0.7445617200261773E-01
    0.5435709967171989E-01    0.7498503927790641E-01
    0.6522851960606386E-01    0.7563046595595375E-01
    0.7609993954040783E-01    0.7639187472740482E-01
    0.8697135947475182E-01    0.7726858579273221E-01
    0.9784277940909580E-01    0.7825981807989792E-01
    0.1087141993434398        0.7936469064237774E-01
    0.1195856192777837        0.8058222423226430E-01
    0.1304570392121277        0.8191134304353603E-01
    0.1413284591464717        0.8335087662037070E-01
    0.1521998790808157        0.8489956192502320E-01
    0.1630712990151597        0.8655604555938874E-01
    0.1739427189495036        0.8831888613397856E-01
    0.1848141388838476        0.9018655677764537E-01
    0.1956855588181916        0.9215744778103280E-01
    0.2065569787525356        0.9422986936637416E-01
    0.2174283986868795        0.9640205457594671E-01
    0.2282998186212235        0.9867216227118492E-01
    0.2391712385555675        0.1010382802341914    
    0.2500426584899115        0.1034984283631301    
    0.2609140784242555        0.1060505619527759    
    0.2717854983585994        0.1086925750513000    
    0.2826569182929434        0.1114223038842117    
    0.2935283382272874        0.1142375303362437    
    0.3043997581616313        0.1171359854818693    
    0.3152711780959753        0.1201153531550616    
    0.3261425980303193        0.1231732735488723    
    0.3370140179646633        0.1263073468353852    
    0.3478854378990073        0.1295151367966284    
    0.3587568578333513        0.1327941744570727    
    0.3696282777676952        0.1361419617084240    
    0.3804996977020392        0.1395559749175294    
    0.3913711176363832        0.1430336685083481    
    0.4022425375707271        0.1465724785091158    
    0.4131139575050711        0.1501698260560140    
    0.4239853774394151        0.1538231208448906    
    0.4348567973737591        0.1575297645228141    
    0.4457282173081031        0.1612871540115332    
    0.4565996372424471        0.1650926847551961    
    0.4674710571767910        0.1689437538850208    
    0.4783424771111350        0.1728377632939452    
    0.4892138970454790        0.1767721226146505    
    0.5000853169798229        0.1807442520947417    
    0.5109567369141670        0.1847515853632687    
    0.5218281568485109        0.1887915720831956    
    0.5326995767828548        0.1928616804848530    
    0.5435709967171989        0.1969593997758734    
    0.5544424166515428        0.2010822424235521    
    0.5653138365858869        0.2052277463060632    
    0.5761852565202308        0.2093934767294340    
    0.5870566764545748        0.2135770283076658    
    0.5979280963889188        0.2177760267038937    
    0.6087995163232627        0.2219881302309587    
    0.6196709362576067        0.2262110313102776    
    0.6305423561919506        0.2304424577883864    
    0.6414137761262947        0.2346801741110315    
    0.6522851960606386        0.2389219823551799    
    0.6631566159949827        0.2431657231197981    
    0.6740280359293266        0.2474092762767447    
    0.6848994558636706        0.2516505615835797    
    0.6957708757980146        0.2558875391605662    
    0.7066422957323585        0.2601182098345888    
    0.7175137156667025        0.2643406153531440    
    0.7283851356010465        0.2685528384719875    
    0.7392565555353905        0.2727530029204344    
    0.7501279754697344        0.2769392732486740    
    0.7609993954040785        0.2811098545618688    
    0.7718708153384224        0.2852629921461096    
    0.7827422352727664        0.2893969709916777    
    0.7936136552071104        0.2935101152193222    
    0.8044850751414543        0.2976007874155830    
    0.8153564950757983        0.3016673878834203    
    0.8262279150101423        0.3057083538146598    
    0.8370993349444863        0.3097221583909659    
    0.8479707548788302        0.3137073098202275    
    0.8588421748131743        0.3176623503154106    
    0.8697135947475182        0.3215858550230428    
    0.8805850146818621        0.3254764309085992    
    0.8914564346162062        0.3293327156061298    
    0.9023278545505501        0.3331533762395095    
    0.9131992744848941        0.3369371082227011    
    0.9240706944192381        0.3406826340464170    
    0.9349421143535821        0.3443887020585074    
    0.9458135342879260        0.3480540852453503    
    0.9566849542222700        0.3516775800214063    
    0.9675563741566140        0.3552580050339787    
    0.9784277940909579        0.3587941999900825    
    0.9892992140253020        0.3622850245121264    
     1.000170633959646        0.3657293570289267    
     1.011042053893990        0.3691260937083435    
     1.021913473828334        0.3724741474375771    
     1.032784893762678        0.3757724468568908    
     1.043656313697022        0.3790199354522409    
     1.054527733631366        0.3822155707119763    
     1.065399153565710        0.3853583233524405    
     1.076270573500054        0.3884471766169651    
     1.087141993434398        0.3914811256523736    
     1.098013413368742        0.3944591769667410    
     1.108884833303086        0.3973803479717559    
     1.119756253237430        0.4002436666126409    
     1.130627673171774        0.4030481710881580    
     1.141499093106118        0.4057929096628123    
     1.152370513040462        0.4084769405729426    
     1.163241932974806        0.4110993320279370    
     1.174113352909150        0.4136591623073917    
     1.184984772843493        0.4161555199545816    
     1.195856192777838        0.4185875040661665    
     1.206727612712182        0.4209542246776286    
     1.217599032646525        0.4232548032434937    
     1.228470452580869        0.4254883732109518    
     1.239341872515213        0.4276540806850803    
     1.250213292449557        0.4297510851834417    
     1.261084712383901        0.4317785604774274    
     1.271956132318245        0.4337356955173107    
     1.282827552252589        0.4356216954376055    
     1.293698972186933        0.4374357826389303    
     1.304570392121277        0.4391771979422362    
     1.315441812055621        0.4408452018109177    
     1.326313231989965        0.4424390756359847    
     1.337184651924309        0.4439581230791911    
     1.348056071858653        0.4454016714687186    
     1.358927491792997        0.4467690732417433    
     1.369798911727341        0.4480597074279903    
     1.380670331661685        0.4492729811681449    
     1.391541751596029        0.4504083312607963    
     1.402413171530373        0.4514652257314273    
     1.413284591464717        0.4524431654168021    
     1.424156011399061        0.4533416855579926    
     1.435027431333405        0.4541603573951878    
     1.445898851267749        0.4548987897573497    
     1.456770271202093        0.4555566306397525    
     1.467641691136437        0.4561335687624106    
     1.478513111070781        0.4566293351024134    
     1.489384531005125        0.4570437043932292    
     1.500255950939469        0.4573764965840908    
     1.511127370873813        0.4576275782526715    
     1.521998790808157        0.4577968639643686    
     1.532870210742501        0.4578843175716585    
     1.543741630676845        0.4578899534471431    
     1.554613050611189        0.4578138376441040    
     1.565484470545533        0.4576560889785840    
     1.576355890479877        0.4574168800272455    
     1.587227310414221        0.4570964374634720    
     1.598098730348565        0.4566950402431708    
     1.608970150282909        0.4562130242512695    
     1.619841570217253        0.4556507825643568    
     1.630712990151597        0.4550087657341720    
     1.641584410085941        0.4542874821714932    
     1.652455830020285        0.4534874984137314    
     1.663327249954629        0.4526094392730937    
     1.674198669888973        0.4516539878625748    
     1.685070089823316        0.4506218854974385    
     1.695941509757660        0.4495139314702770    
     1.706812929692004        0.4483309826981454    
     1.717684349626349        0.4470739532407109    
     1.728555769560692        0.4457438136887817    
     1.739427189495036        0.4443415968894923    
     1.750298609429380        0.4428683875137252    
     1.761170029363724        0.4413253107137032    
     1.772041449298068        0.4397135545244243    
     1.782912869232412        0.4380343584955034    
     1.793784289166756        0.4362890123369506    
     1.804655709101100        0.4344788544195969    
     1.815527129035444        0.4326052701566075    
     1.826398548969788        0.4306696902693344    
     1.837269968904132        0.4286735889411650    
     1.848141388838476        0.4266184818634062    
     1.859012808772820        0.4245059241776294    
     1.869884228707164        0.4223375083192505    
     1.880755648641508        0.4201148617674766    
     1.891627068575852        0.4178396447070729    
     1.902498488510196        0.4155135476077180    
     1.913369908444540        0.4131382887270062    
     1.924241328378884        0.4107156115434302    
     1.935112748313228        0.4082472821259276    
     1.945984168247572        0.4057350864468035    
     1.956855588181916        0.4031808276450487    
     1.967727008116260        0.4005863232472623    
     1.978598428050604        0.3979534023535351    
     1.989469847984948        0.3952839027958008    
     2.000341267919292        0.3925796682762593    
     2.011212687853636        0.3898425454935727    
     2.022084107787980        0.3870743812645833    
     2.032955527722324        0.3842770196493490    
     2.043826947656668        0.3814522990872877    
     2.054698367591012        0.3786020495522129    
     2.065569787525356        0.3757280897339983    
     2.076441207459700        0.3728322242545374    
     2.087312627394044        0.3699162409255672    
     2.098184047328388        0.3669819080558174    
     2.109055467262732        0.3640309718147916    
     2.119926887197076        0.3610651536603188    
     2.130798307131419        0.3580861478368336    
     2.141669727065763        0.3550956189511169    
     2.152541147000107        0.3520951996320013    
     2.163412566934451        0.3490864882802787    
     2.174283986868796        0.3460710469147980    
     2.185155406803140        0.3430503991204042    
     2.196026826737484        0.3400260281030869    
     2.206898246671827        0.3369993748573629    
     2.217769666606171        0.3339718364505679    
     2.228641086540515        0.3309447644283859    
     2.239512506474859        0.3279194633455420    
     2.250383926409203        0.3248971894252295    
     2.261255346343547        0.3218791493504157    
     2.272126766277891        0.3188664991897783    
     2.282998186212235        0.3158603434606139    
     2.293869606146579        0.3128617343306133    
     2.304741026080923        0.3098716709600073    
     2.315612446015267        0.3068910989851235    
     2.326483865949611        0.3039209101439744    
     2.337355285883955        0.3009619420440770    
     2.348226705818299        0.2980149780652289    
     2.359098125752643        0.2950807473047035    
     2.369969545686987        0.2921599249220546    
     2.380840965621331        0.2892531328640527    
     2.391712385555675        0.2863609404938566    
     2.402583805490019        0.2834838635161231    
     2.413455225424363        0.2806223635111563    
     2.424326645358707        0.2777768506118841    
     2.435198065293051        0.2749476903501939    
     2.446069485227395        0.2721352115368799    
     2.456940905161739        0.2693397143731112    
     2.467812325096083        0.2665614778361047    
     2.478683745030427        0.2638007652200637    
     2.489555164964771        0.2610578250358594    
     2.500426584899115        0.2583328900630019    
     2.511298004833459        0.2556261765972730    
     2.522169424767803        0.2529378854157303    
     2.533040844702147        0.2502682026759950    
     2.543912264636491        0.2476173005521911    
     2.554783684570835        0.2449853376321376    
     2.565655104505179        0.2423724594045981    
     2.576526524439523        0.2397787987370989    
     2.587397944373867        0.2372044763393938    
     2.598269364308210        0.2346496012121781    
     2.609140784242554        0.2321142710818693    
     2.620012204176899        0.2295985728218373    
     2.630883624111243        0.2271025828604823    
     2.641755044045587        0.2246263675765280    
     2.652626463979931        0.2221699836819052    
     2.663497883914275        0.2197334785925767    
     2.674369303848618        0.2173168907876563    
     2.685240723782962        0.2149202501571595    
     2.696112143717306        0.2125435783387155    
     2.706983563651650        0.2101868890435648    
     2.717854983585994        0.2078501883721505    
     2.728726403520338        0.2055334751196160    
     2.739597823454683        0.2032367410714945    
     2.750469243389026        0.2009599712898915    
     2.761340663323370        0.1987031443904280    
     2.772212083257714        0.1964662328102300    
     2.783083503192058        0.1942492030672171    
     2.793954923126402        0.1920520160109616    
     2.804826343060746        0.1898746270653541    
     2.815697762995090        0.1877169864633373    
     2.826569182929434        0.1855790394739270    
     2.837440602863778        0.1834607266217650    
     2.848312022798122        0.1813619838994210    
     2.859183442732466        0.1792827429726628    
     2.870054862666810        0.1772229313789078    
     2.880926282601154        0.1751824727190580    
     2.891797702535498        0.1731612868429248    
     2.902669122469842        0.1711592900284288    
     2.913540542404186        0.1691763951547715    
     2.924411962338530        0.1672125118697592    
     2.935283382272874        0.1652675467514520    
     2.946154802207218        0.1633414034643210    
     2.957026222141562        0.1614339829100730    
     2.967897642075906        0.1595451833733064    
     2.978769062010250        0.1576749006621657    
     2.989640481944594        0.1558230282441318    
     3.000511901878938        0.1539894573771157    
     3.011383321813282        0.1521740772359866    
     3.022254741747626        0.1503767750346807    
     3.033126161681970        0.1485974361440293    
     3.043997581616314        0.1468359442054329    
     3.054869001550657        0.1450921812405152    
     3.065740421485001        0.1433660277568789    
     3.076611841419346        0.1416573628500875    
     3.087483261353690        0.1399660643019850    
     3.098354681288034        0.1382920086754760    
     3.109226101222378        0.1366350714058684    
     3.120097521156722        0.1349951268888928    
     3.130968941091066        0.1333720485655000    
     3.141840361025409        0.1317657090035376    
     3.152711780959753        0.1301759799764047    
     3.163583200894097        0.1286027325387797    
     3.174454620828441        0.1270458370995161    
     3.185326040762785        0.1255051634917895    
     3.196197460697130        0.1239805810405903    
     3.207068880631474        0.1224719586276432    
     3.217940300565817        0.1209791647538349    
     3.228811720500161        0.1195020675992283    
     3.239683140434505        0.1180405350807451    
     3.250554560368849        0.1165944349075870    
     3.261425980303193        0.1151636346344695    
     3.272297400237537        0.1137480017127376    
     3.283168820171881        0.1123474035394347    
     3.294040240106225        0.1109617075043876    
     3.304911660040569        0.1095907810353720    
     3.315783079974913        0.1082344916414224    
     3.326654499909257        0.1068927069543463    
     3.337525919843601        0.1055652947684996    
     3.348397339777945        0.1042521230788826    
     3.359268759712289        0.1029530601176074    
     3.370140179646633        0.1016679743887951    
     3.381011599580977        0.1003967347019511    
     3.391883019515321        0.9913921020386947E-01
     3.402754439449665        0.9789527040911516E-01
     3.413625859384009        0.9666478522913058E-01
     3.424497279318353        0.9544762500001289E-01
     3.435368699252697        0.9424366050900677E-01
     3.446240119187041        0.9305276301975335E-01
     3.457111539121385        0.9187480429633996E-01
     3.467982959055729        0.9070965662618746E-01
     3.478854378990073        0.8955719284181823E-01
     3.489725798924417        0.8841728634153918E-01
     3.500597218858761        0.8728981110907834E-01
     3.511468638793105        0.8617464173221122E-01
     3.522340058727448        0.8507165342040808E-01
     3.533211478661793        0.8398072202153974E-01
     3.544082898596137        0.8290172403767172E-01
     3.554954318530481        0.8183453663997890E-01
     3.565825738464825        0.8077903768281096E-01
     3.576697158399169        0.7973510571693745E-01
     3.587568578333513        0.7870262000200227E-01
     3.598439998267856        0.7768146051821481E-01
     3.609311418202200        0.7667150797730266E-01
     3.620182838136544        0.7567264383275533E-01
     3.631054258070888        0.7468475028938111E-01
     3.641925678005232        0.7370771031220356E-01
     3.652797097939577        0.7274140763471849E-01
     3.663668517873921        0.7178572676653736E-01
     3.674539937808264        0.7084055300043816E-01
     3.685411357742608        0.6990577241884337E-01
     3.696282777676952        0.6898127189974831E-01
     3.707154197611296        0.6806693912211903E-01
     3.718025617545640        0.6716266257077913E-01
     3.728897037479984        0.6626833154080354E-01
     3.739768457414328        0.6538383614143926E-01
     3.750639877348672        0.6450906729956973E-01
     3.761511297283016        0.6364391676273963E-01
     3.772382717217360        0.6278827710175669E-01
     3.783254137151704        0.6194204171288822E-01
     3.794125557086048        0.6110510481966556E-01
     3.804996977020392        0.6027736147431254E-01
     3.815868396954736        0.5945870755881300E-01
     3.826739816889080        0.5864903978563035E-01
     3.837611236823424        0.5784825569809368E-01
     3.848482656757768        0.5705625367046311E-01
     3.859354076692112        0.5627293290768736E-01
     3.870225496626456        0.5549819344486569E-01
     3.881096916560800        0.5473193614642659E-01
     3.891968336495144        0.5397406270503389E-01
     3.902839756429488        0.5322447564023252E-01
     3.913711176363832        0.5248307829684448E-01
     3.924582596298176        0.5174977484312401E-01
     3.935454016232520        0.5102447026868450E-01
     3.946325436166864        0.5030707038220601E-01
     3.957196856101208        0.4959748180893057E-01
     3.968068276035552        0.4889561198795822E-01
     3.978939695969896        0.4820136916935130E-01
     3.989811115904240        0.4751466241105245E-01
     4.000682535838584        0.4683540157562890E-01
     4.011553955772928        0.4616349732684986E-01
     4.022425375707272        0.4549886112610184E-01
     4.033296795641616        0.4484140522865351E-01
     4.044168215575960        0.4419104267977792E-01
     4.055039635510304        0.4354768731073248E-01
     4.065911055444648        0.4291125373460959E-01
     4.076782475378992        0.4228165734206136E-01
     4.087653895313336        0.4165881429690286E-01
     4.098525315247679        0.4104264153160567E-01
     4.109396735182023        0.4043305674268492E-01
     4.120268155116367        0.3982997838598593E-01
     4.131139575050711        0.3923332567188199E-01
     4.142010994985055        0.3864301856036938E-01
     4.152882414919399        0.3805897775607664E-01
     4.163753834853743        0.3748112470319976E-01
     4.174625254788087        0.3690938158036644E-01
     4.185496674722431        0.3634367129541815E-01
     4.196368094656775        0.3578391748013000E-01
     4.207239514591119        0.3523004448486832E-01
     4.218110934525463        0.3468197737319203E-01
     4.228982354459808        0.3413964191639807E-01
     4.239853774394152        0.3360296458801497E-01
     4.250725194328496        0.3307187255824959E-01
     4.261596614262839        0.3254629368839109E-01
     4.272468034197183        0.3202615652517195E-01
     4.283339454131527        0.3151139029509564E-01
     4.294210874065871        0.3100192489872951E-01
     4.305082294000215        0.3049769090496591E-01
     4.315953713934559        0.2999861954525703E-01
     4.326825133868903        0.2950464270782368E-01
     4.337696553803247        0.2901569293184209E-01
     4.348567973737591        0.2853170340161083E-01
     4.359439393671935        0.2805260794070076E-01
     4.370310813606279        0.2757834100608970E-01
     4.381182233540623        0.2710883768228514E-01
     4.392053653474967        0.2664403367543578E-01
     4.402925073409311        0.2618386530743588E-01
     4.413796493343654        0.2572826951002221E-01
     4.424667913277998        0.2527718381886748E-01
     4.435539333212343        0.2483054636767203E-01
     4.446410753146687        0.2438829588225292E-01
     4.457282173081031        0.2395037167463620E-01
     4.468153593015375        0.2351671363715091E-01
     4.479025012949719        0.2308726223652738E-01
     4.489896432884063        0.2266195850800199E-01
     4.500767852818407        0.2224074404942832E-01
     4.511639272752751        0.2182356101539780E-01
     4.522510692687095        0.2141035211136975E-01
     4.533382112621439        0.2100106058781266E-01
     4.544253532555783        0.2059563023435877E-01
     4.555124952490127        0.2019400537397038E-01
     4.565996372424470        0.1979613085712277E-01
     4.576867792358814        0.1940195205600157E-01
     4.587739212293158        0.1901141485871694E-01
     4.598610632227502        0.1862446566353594E-01
     4.609482052161846        0.1824105137313248E-01
     4.620353472096190        0.1786111938885737E-01
     4.631224892030534        0.1748461760502788E-01
     4.642096311964878        0.1711149440323833E-01
     4.652967731899222        0.1674169864669305E-01
     4.663839151833566        0.1637517967455974E-01
     4.674710571767910        0.1601188729634801E-01
     4.685581991702255        0.1565177178630923E-01
     4.696453411636599        0.1529478387786220E-01
     4.707324831570943        0.1494087475804203E-01
     4.718196251505286        0.1458999606197507E-01
     4.729067671439630        0.1424209986737862E-01
     4.739939091373974        0.1389713868908678E-01
     4.750810511308318        0.1355506547360347E-01
     4.761681931242662        0.1321583359368058E-01
     4.772553351177006        0.1287939684292458E-01
     4.783424771111350        0.1254570943042979E-01
     4.794296191045694        0.1221472597543942E-01
     4.805167610980038        0.1188640150203458E-01
     4.816039030914382        0.1156069143385126E-01
     4.826910450848726        0.1123755158882643E-01
     4.837781870783070        0.1091693817397125E-01
     4.848653290717414        0.1059880778017466E-01
     4.859524710651758        0.1028311737703428E-01
     4.870396130586101        0.9969824307717848E-02
     4.881267550520445        0.9658886283852013E-02
     4.892138970454790        0.9350261380442012E-02
     4.903010390389134        0.9043908030819467E-02
     4.913881810323478        0.8739785021691324E-02
     4.924753230257822        0.8437851502140502E-02
     4.935624650192166        0.8138067342163635E-02
     4.946496070126510        0.7840395781374824E-02
     4.957367490060854        0.7544811634503209E-02
     4.968238909995198        0.7251315345147380E-02
     4.979110329929542        0.6959948869296818E-02
     4.989981749863886        0.6670808616081978E-02
     5.000853169798230        0.6384052730467837E-02
     5.011724589732574        0.6099902299938335E-02
     5.022596009666918        0.5818637455733128E-02
     5.033467429601261        0.5540589840618069E-02
     5.044338849535605        0.5266132885535815E-02
     5.055210269469949        0.4995671079508886E-02
     5.066081689404293        0.4729629107739598E-02
     5.076953109338637        0.4468441453187185E-02
     5.087824529272981        0.4212542833894131E-02
     5.098695949207325        0.3962359683071867E-02
     5.109567369141669        0.3718302762685376E-02
     5.120438789076013        0.3480760922990081E-02
     5.131310209010358        0.3250095970130876E-02
     5.142181628944702        0.3026638573377294E-02
     5.153053048879046        0.2810685126696794E-02
     5.163924468813390        0.2602495471672234E-02
     5.174795888747734        0.2402291387073202E-02
     5.185667308682077        0.2210255752478362E-02
     5.196538728616421        0.2026532297695082E-02
     5.207410148550765        0.1851225855301274E-02
     5.218281568485109        0.1684403039733214E-02
     5.229152988419453        0.1526093282488703E-02
     5.240024408353797        0.1376290158853796E-02
     5.250895828288141        0.1234952946829308E-02
     5.261767248222485        0.1102008363353308E-02
     5.272638668156829        0.9773524261743177E-03
     5.283510088091173        0.8608523913313553E-03
     5.294381508025517        0.7523487153476206E-03
     5.305252927959861        0.6516569864962341E-03
     5.316124347894205        0.5585697581749419E-03
     5.326995767828549        0.4728581942669382E-03
     5.337867187762892        0.3942733905236317E-03
     5.348738607697237        0.3225471436608205E-03
     5.359610027631581        0.2573917446192667E-03
     5.370481447565925        0.1984979274822673E-03
     5.381352867500269        0.1455289791548732E-03
     5.392224287434613        0.9810571014049979E-04
     5.403095707368957        0.5576544177805625E-04
     5.413967127303301        0.1781028875926594E-04
     5.424838547237645         0.000000000000000    
  0  6  2  0  0.000000   #orbital l, n, z, is_polarized, population
 500    0.7571078812590878E-02     3.777968327482848     # npts, delta, cutoff
     0.000000000000000       -0.2749747625878683    
    0.7571078812590878E-02   -0.2749194196881176    
    0.1514215762518176E-01   -0.2747422775955460    
    0.2271323643777264E-01   -0.2744471215416611    
    0.3028431525036351E-01   -0.2740340787362542    
    0.3785539406295439E-01   -0.2735033256440488    
    0.4542647287554527E-01   -0.2728550886491368    
    0.5299755168813615E-01   -0.2720896439736379    
    0.6056863050072703E-01   -0.2712073174651046    
    0.6813970931331791E-01   -0.2702084843212549    