<preamble>

<basis_specs>
===============================================================================
Br                   Z=  35    Mass=  79.904        Charge= 0.17977+309
Lmxo=2 Lmxkb= 2    BasisType=split      Semic=F
L=0  Nsemic=0  Cnfigmx=4
          i=1  nzeta=2  polorb=0  (4s)
            splnorm:   0.15000    
               vcte:    40.000    
               rinn:    4.0807    
               qcoe:    0.0000    
               qyuk:    0.0000    
               qwid:   0.10000E-01
                rcs:    4.5296      3.0452    
            lambdas:    1.0000      1.0000    
L=1  Nsemic=0  Cnfigmx=4
          i=1  nzeta=2  polorb=1  (4p)  (to be polarized perturbatively)
            splnorm:   0.15000    
               vcte:    40.000    
               rinn:    5.2004    
               qcoe:    0.0000    
               qyuk:    0.0000    
               qwid:   0.10000E-01
                rcs:    5.7725      3.9405    
            lambdas:    1.0000      1.0000    
L=2  Nsemic=0  Cnfigmx=4
          i=1  nzeta=0  polorb=0  (4d)  (perturbative polarization orbital) (from 4p)
-------------------------------------------------------------------------------
L=0  Nkbl=1  erefs: 0.17977+309
L=1  Nkbl=1  erefs: 0.17977+309
L=2  Nkbl=1  erefs: 0.17977+309
===============================================================================
</basis_specs>

<pseudopotential_header>
 Br pw nrl pcec
 ONCVPSP-3.2018-03-09Hamann's oncvpsp                        
 4s 2.00  r= 1.81/4p 5.00  r= 1.51/4d 0.00  r= 1.92/                    4s:4p:
</pseudopotential_header>
</preamble>
Br                            # Symbol
Br                            # Label
   35                         # Atomic number
     7.00000000000                             # Valence charge
     79.9040000000        # Mass 
     54.1734018783        # Self energy 
   2   5                      # Lmax for basis, no. of nl orbitals 
   2   6                      # Lmax for projectors, no. of nl KB projectors
# PAOs:__________________________
  0  4  1  0  2.000000   #orbital l, n, z, is_polarized, population
 500    0.9077272028732103E-02     4.529558742337319     # npts, delta, cutoff
     0.000000000000000        0.7074847486791469E-01
    0.9077272028732103E-02    0.7086585247260510E-01
    0.1815454405746421E-01    0.7122034452099749E-01
    0.2723181608619631E-01    0.7181078855426412E-01
    0.3630908811492841E-01    0.7263662017825674E-01
    0.4538636014366051E-01    0.7369705112750267E-01
    0.5446363217239261E-01    0.7499107071651849E-01
    0.6354090420112472E-01    0.7651744786387693E-01
    0.7261817622985682E-01    0.7827473356421802E-01
    0.8169544825858892E-01    0.8026126378217389E-01
    0.9077272028732103E-01    0.8247516275014194E-01
    0.9984999231605313E-01    0.8491434665167048E-01
    0.1089272643447852        0.8757652767083075E-01
    0.1180045363735173        0.9045921838639209E-01
    0.1270818084022494        0.9355973648816178E-01
    0.1361590804309815        0.9687520979152765E-01
    0.1452363524597136        0.1004025815251207    
    0.1543136244884457        0.1041386158655739    
    0.1633908965171778        0.1080799036926277    
    0.1724681685459100        0.1122228685373156    
    0.1815454405746421        0.1165637726956566    
    0.1906227126033742        0.1210987234801939    
    0.1996999846321063        0.1258236795818489    
    0.2087772566608384        0.1307344575148912    
    0.2178545286895704        0.1358267381183833    
    0.2269318007183026        0.1410960730881944    
    0.2360090727470347        0.1465378915146321    
    0.2450863447757668        0.1521475064018567    
    0.2541636168044989        0.1579201211465373    
    0.2632408888332310        0.1638508359546639    
    0.2723181608619631        0.1699346541770226    
    0.2813954328906952        0.1761664885455591    
    0.2904727049194273        0.1825411672946905    
    0.2995499769481594        0.1890534401535381    
    0.3086272489768915        0.1956979841970483    
    0.3177045210056236        0.2024694095460154    
    0.3267817930343557        0.2093622649080921    
    0.3358590650630878        0.2163710429539590    
    0.3449363370918199        0.2234901855249129    
    0.3540136091205520        0.2307140886701748    
    0.3630908811492841        0.2380371075142365    
    0.3721681531780162        0.2454535609564886    
    0.3812454252067483        0.2529577362072394    
    0.3903226972354804        0.2605438931659806    
    0.3993999692642125        0.2682062686493898    
    0.4084772412929446        0.2759390804780707    
    0.4175545133216767        0.2837365314323688    
    0.4266317853504088        0.2915928130888221    
    0.4357090573791409        0.2995021095498148    
    0.4447863294078730        0.3074586010798619    
    0.4538636014366051        0.3154564676626158    
    0.4629408734653372        0.3234898924931655    
    0.4720181454940693        0.3315530654204759    
    0.4810954175228014        0.3396401863549098    
    0.4901726895515335        0.3477454686556652    
    0.4992499615802656        0.3558631425126624    
    0.5083272336089978        0.3639874583369383    
    0.5174045056377299        0.3721126901729269    
    0.5264817776664620        0.3802331391451849    
    0.5355590496951941        0.3883431369510940    
    0.5446363217239262        0.3964370494099412    
    0.5537135937526583        0.4045092800774682    
    0.5627908657813904        0.4125542739335671    
    0.5718681378101225        0.4205665211492624    
    0.5809454098388546        0.4285405609374963    
    0.5900226818675867        0.4364709854905413    
    0.5990999538963188        0.4443524440050811    
    0.6081772259250509        0.4521796467942110    
    0.6172544979537830        0.4599473694837817    
    0.6263317699825151        0.4676504572886896    
    0.6354090420112471        0.4752838293628728    
    0.6444863140399792        0.4828424832150304    
    0.6535635860687113        0.4903214991803548    
    0.6626408580974434        0.4977160449368629    
    0.6717181301261755        0.5050213800534260    
    0.6807954021549077        0.5122328605550640    
    0.6898726741836398        0.5193459434897809    
    0.6989499462123719        0.5263561914799807    
    0.7080272182411040        0.5332592772404571    
    0.7171044902698361        0.5400509880440481    
    0.7261817622985682        0.5467272301153190    
    0.7352590343273003        0.5532840329320693    
    0.7443363063560324        0.5597175534140968    
    0.7534135783847645        0.5660240799784799    
    0.7624908504134966        0.5722000364406128    
    0.7715681224422287        0.5782419857404730    
    0.7806453944709608        0.5841466334739455    
    0.7897226664996929        0.5899108312096586    
    0.7987999385284250        0.5955315795724955    
    0.8078772105571571        0.6010060310759454    
    0.8169544825858892        0.6063314926865283    
    0.8260317546146213        0.6115054281048306    
    0.8351090266433534        0.6165254597490951    
    0.8441862986720855        0.6213893704288941    
    0.8532635707008176        0.6260951046980804    
    0.8623408427295497        0.6306407698780151    
    0.8714181147582818        0.6350246367439739    
    0.8804953867870140        0.6392451398695730    
    0.8895726588157461        0.6433008776261000    
    0.8986499308444782        0.6471906118356983    
    0.9077272028732103        0.6509132670794300    
    0.9168044749019424        0.6544679296633364    
    0.9258817469306745        0.6578538462476939    
    0.9349590189594066        0.6610704221467031    
    0.9440362909881387        0.6641172193078300    
    0.9531135630168708        0.6669939539819286    
    0.9621908350456029        0.6697004940971483    
    0.9712681070743350        0.6722368563512752    
    0.9803453791030671        0.6746032030388660    
    0.9894226511317992        0.6767998386309102    
    0.9984999231605313        0.6788272061261683    
     1.007577195189263        0.6806858831944373    
     1.016654467217996        0.6823765781330658    
     1.025731739246728        0.6839001256588038    
     1.034809011275460        0.6852574825577800    
     1.043886283304192        0.6864497232168145    
     1.052963555332924        0.6874780350595636    
     1.062040827361656        0.6883437139110703    
     1.071118099390388        0.6890481593141591    
     1.080195371419120        0.6895928698208389    
     1.089272643447852        0.6899794382813467    
     1.098349915476584        0.6902095471528176    
     1.107427187505317        0.6902849638487115    
     1.116504459534049        0.6902075361491027    
     1.125581731562781        0.6899791876907889    
     1.134659003591513        0.6896019135548455    
     1.143736275620245        0.6890777759678235    
     1.152813547648977        0.6884089001312278    
     1.161890819677709        0.6875974701922449    
     1.170968091706441        0.6866457253669603    
     1.180045363735173        0.6855559562254888    
     1.189122635763906        0.6843305011465582    
     1.198199907792638        0.6829717429472381    
     1.207277179821370        0.6814821056915350    
     1.216354451850102        0.6798640516797188    
     1.225431723878834        0.6781200786183220    
     1.234508995907566        0.6762527169689257    
     1.243586267936298        0.6742645274720416    
     1.252663539965030        0.6721580988406795    
     1.261740811993762        0.6699360456165582    
     1.270818084022494        0.6676010061823262    
     1.279895356051227        0.6651556412590450    
     1.288972628079958        0.6626026312302778    
     1.298049900108691        0.6599446753536645    
     1.307127172137423        0.6571844888414320    
     1.316204444166155        0.6543248012102689    
     1.325281716194887        0.6513683580108615    
     1.334358988223619        0.6483179181051122    
     1.343436260252351        0.6451762524437513    
     1.352513532281083        0.6419461428904220    
     1.361590804309815        0.6386303810606707    
     1.370668076338547        0.6352317671601964    
     1.379745348367280        0.6317531088071049    
     1.388822620396012        0.6281972198234551    
     1.397899892424744        0.6245669189821017    
     1.406977164453476        0.6208650286957037    
     1.416054436482208        0.6170943736357757    
     1.425131708510940        0.6132577792708037    
     1.434208980539672        0.6093580703137199    
     1.443286252568404        0.6053980690704009    
     1.452363524597136        0.6013805936823245    
     1.461440796625868        0.5973084562580804    
     1.470518068654601        0.5931844608900353    
     1.479595340683333        0.5890114015541319    
     1.488672612712065        0.5847920598924795    
     1.497749884740797        0.5805292028801324    
     1.506827156769529        0.5762255803791334    
     1.515904428798261        0.5718839225846291    
     1.524981700826993        0.5675069373694752    
     1.534058972855725        0.5630973075353970    
     1.543136244884457        0.5586576879802850    
     1.552213516913190        0.5541907027926499    
     1.561290788941922        0.5496989422856580    
     1.570368060970654        0.5451849599844186    
     1.579445332999386        0.5406512695812719    
     1.588522605028118        0.5361003418749117    
     1.597599877056850        0.5315346017099450    
     1.606677149085582        0.5269564249342470    
     1.615754421114314        0.5223681353919946    
     1.624831693143046        0.5177720019706691    
     1.633908965171778        0.5131702357204869    
     1.642986237200511        0.5085649870648309    
     1.652063509229243        0.5039583431200582    
     1.661140781257975        0.4993523251428442    
     1.670218053286707        0.4947488861226972    
     1.679295325315439        0.4901499085367086    
     1.688372597344171        0.4855572022827953    
     1.697449869372903        0.4809725028067788    
     1.706527141401635        0.4763974694375767    
     1.715604413430367        0.4718336839435650    
     1.724681685459099        0.4672826493218827    
     1.733758957487832        0.4627457888309768    
     1.742836229516564        0.4582244452751902    
     1.751913501545296        0.4537198805374927    
     1.760990773574028        0.4492332752698180    
     1.770068045602760        0.4447657292172007    
     1.779145317631492        0.4403182621667399    
     1.788222589660224        0.4358918139021539    
     1.797299861688956        0.4314872427398322    
     1.806377133717688        0.4271053269757942    
     1.815454405746421        0.4227467731194335    
     1.824531677775153        0.4184122272201298    
     1.833608949803885        0.4141022869532795    
     1.842686221832617        0.4098175128211968    
     1.851763493861349        0.4055584354390437    
     1.860840765890081        0.4013255561466242    
     1.869918037918813        0.3971193455320021    
     1.878995309947545        0.3929402440039725    
     1.888072581976277        0.3887886634579170    
     1.897149854005009        0.3846649885972376    
     1.906227126033742        0.3805695777704479    
     1.915304398062474        0.3765027638972334    
     1.924381670091206        0.3724648553891385    
     1.933458942119938        0.3684561370431192    
     1.942536214148670        0.3644768709069734    
     1.951613486177402        0.3605272971183161    
     1.960690758206134        0.3566076347178065    
     1.969768030234866        0.3527180824373298    
     1.978845302263598        0.3488588194638153    
     1.987922574292331        0.3450300061793578    
     1.996999846321063        0.3412317848782904    
     2.006077118349795        0.3374642804618441    
     2.015154390378527        0.3337276011110258    
     2.024231662407259        0.3300218389383045    
     2.033308934435991        0.3263470706187108    
     2.042386206464723        0.3227033580009236    
     2.051463478493455        0.3190907486989083    
     2.060540750522187        0.3155092766646532    
     2.069618022550920        0.3119589627425494    
     2.078695294579652        0.3084398152059299    
     2.087772566608384        0.3049518302762803    
     2.096849838637115        0.3014949926256235    
     2.105927110665848        0.2980692758625577    
     2.115004382694580        0.2946746430024252    
     2.124081654723312        0.2913110469220704    
     2.133158926752044        0.2879784307996354    
     2.142236198780776        0.2846767285398373    
     2.151313470809508        0.2814058651851432    
     2.160390742838240        0.2781657573132664    
     2.169468014866973        0.2749563134213860    
     2.178545286895705        0.2717774342974784    
     2.187622558924437        0.2686290133791541    
     2.196699830953169        0.2655109371003612    
     2.205777102981901        0.2624230852263260    
     2.214854375010633        0.2593653311770857    
     2.223931647039365        0.2563375423399445    
     2.233008919068097        0.2533395803712059    
     2.242086191096829        0.2503713014874886    
     2.251163463125561        0.2474325567469565    
     2.260240735154293        0.2445231923207571    
     2.269318007183025        0.2416430497549830    
     2.278395279211758        0.2387919662234292    
     2.287472551240490        0.2359697747714481    
     2.296549823269222        0.2331763045511580    
     2.305627095297954        0.2304113810482886    
     2.314704367326686        0.2276748263009107    
     2.323781639355418        0.2249664591103125    
     2.332858911384150        0.2222860952442566    
     2.341936183412883        0.2196335476328669    
     2.351013455441615        0.2170086265573687    
     2.360090727470347        0.2144111398319087    
     2.369167999499079        0.2118408929786766    
     2.378245271527811        0.2092976893965331    
     2.387322543556543        0.2067813305233602    
     2.396399815585275        0.2042916159923190    
     2.405477087614007        0.2018283437822255    
     2.414554359642739        0.1993913103622214    
     2.423631631671471        0.1969803108309225    
     2.432708903700203        0.1945951390502332    
     2.441786175728935        0.1922355877739816    
     2.450863447757668        0.1899014487715625    
     2.459940719786400        0.1875925129467304    
     2.469017991815132        0.1853085704517157    
     2.478095263843864        0.1830494107968087    
     2.487172535872596        0.1808148229555580    
     2.496249807901328        0.1786045954657356    
     2.505327079930060        0.1764185165261974    
     2.514404351958792        0.1742563740897800    
     2.523481623987525        0.1721179559523675    
     2.532558896016257        0.1700030498382458    
     2.541636168044989        0.1679114434818784    
     2.550713440073721        0.1658429247062161    
     2.559790712102453        0.1637972814976584    
     2.568867984131185        0.1617743020777795    
     2.577945256159917        0.1597737749719278    
     2.587022528188649        0.1577954890748020    
     2.596099800217381        0.1558392337131096    
     2.605177072246113        0.1539047987054047    
     2.614254344274845        0.1519919744192001    
     2.623331616303578        0.1501005518254499    
     2.632408888332310        0.1482303225504912    
     2.641486160361042        0.1463810789255301    
     2.650563432389774        0.1445526140337609    
     2.659640704418506        0.1427447217551957    
     2.668717976447238        0.1409571968092906    
     2.677795248475970        0.1391898347954357    
     2.686872520504702        0.1374424322313929    
     2.695949792533435        0.1357147865897489    
     2.705027064562167        0.1340066963324536    
     2.714104336590899        0.1323179609435115    
     2.723181608619631        0.1306483809598937    
     2.732258880648363        0.1289977580007318    
     2.741336152677095        0.1273658947948558    
     2.750413424705827        0.1257525952067355    
     2.759490696734559        0.1241576642608829    
     2.768567968763291        0.1225809081647721    
     2.777645240792023        0.1210221343303309    
     2.786722512820755        0.1194811513940519    
     2.795799784849488        0.1179577692357811    
     2.804877056878220        0.1164517989962273    
     2.813954328906952        0.1149630530932431    
     2.823031600935684        0.1134913452369173    
     2.832108872964416        0.1120364904435323    
     2.841186144993148        0.1105983050484219    
     2.850263417021880        0.1091766067177732    
     2.859340689050612        0.1077712144594150    
     2.868417961079345        0.1063819486326266    
     2.877495233108077        0.1050086309570097    
     2.886572505136809        0.1036510845204566    
     2.895649777165541        0.1023091337862510    
     2.904727049194273        0.1009826045993351    
     2.913804321223005        0.9967132419177469E-01
     2.922881593251737        0.9837512118745653E-01
     2.931958865280469        0.9709382560604575E-01
     2.941036137309201        0.9582726886623597E-01
     2.950113409337933        0.9457528378831825E-01
     2.959190681366665        0.9333770459609728E-01
     2.968267953395398        0.9211436691818235E-01
     2.977345225424130        0.9090510778867998E-01
     2.986422497452862        0.8970976564730843E-01
     2.995499769481594        0.8852818033896423E-01
     3.004577041510326        0.8736019311276139E-01
     3.013654313539058        0.8620564662056437E-01
     3.022731585567790        0.8506438491504061E-01
     3.031808857596522        0.8393625344724755E-01
     3.040886129625255        0.8282109906378167E-01
     3.049963401653986        0.8171877000350458E-01
     3.059040673682718        0.8062911589386475E-01
     3.068117945711450        0.7955198774683624E-01
     3.077195217740183        0.7848723795449028E-01
     3.086272489768915        0.7743472028421608E-01
     3.095349761797647        0.7639428987360929E-01
     3.104427033826379        0.7536580322504151E-01
     3.113504305855111        0.7434911819992916E-01
     3.122581577883843        0.7334409401271424E-01
     3.131658849912575        0.7235059122457112E-01
     3.140736121941308        0.7136847173685498E-01
     3.149813393970040        0.7039759878430422E-01
     3.158890665998772        0.6943783692800855E-01
     3.167967938027504        0.6848905204815688E-01
     3.177045210056236        0.6755111133657579E-01
     3.186122482084968        0.6662388328907126E-01
     3.195199754113700        0.6570723769758210E-01
     3.204277026142432        0.6480104564215888E-01
     3.213354298171164        0.6390517948277795E-01
     3.222431570199896        0.6301951285099688E-01
     3.231508842228628        0.6214392064146656E-01
     3.240586114257360        0.6127827900330584E-01
     3.249663386286093        0.6042246533134594E-01
     3.258740658314825        0.5957635825725786E-01
     3.267817930343557        0.5873983764056662E-01
     3.276895202372289        0.5791278455956241E-01
     3.285972474401021        0.5709508130211566E-01
     3.295049746429753        0.5628661135640384E-01
     3.304127018458485        0.5548725940155567E-01
     3.313204290487218        0.5469691129822110E-01
     3.322281562515950        0.5391545407907253E-01
     3.331358834544682        0.5314277593924403E-01
     3.340436106573414        0.5237876622671367E-01
     3.349513378602146        0.5162331543263630E-01
     3.358590650630878        0.5087631518163086E-01
     3.367667922659610        0.5013765822202761E-01
     3.376745194688342        0.4940723841608174E-01
     3.385822466717074        0.4868495073015654E-01
     3.394899738745806        0.4797069122488201E-01
     3.403977010774538        0.4726435704529258E-01
     3.413054282803270        0.4656584641094928E-01
     3.422131554832003        0.4587505860604901E-01
     3.431208826860735        0.4519189396952664E-01
     3.440286098889467        0.4451625388515202E-01
     3.449363370918199        0.4384804077162675E-01
     3.458440642946931        0.4318715807268365E-01
     3.467517914975663        0.4253351024719255E-01
     3.476595187004395        0.4188700275927492E-01
     3.485672459033127        0.4124754206843102E-01
     3.494749731061860        0.4061503561968278E-01
     3.503827003090592        0.3998939183373385E-01
     3.512904275119324        0.3937052009715079E-01
     3.521981547148056        0.3875833075256734E-01
     3.531058819176788        0.3815273508891428E-01
     3.540136091205520        0.3755364533167675E-01
     3.549213363234252        0.3696097463318231E-01
     3.558290635262984        0.3637463706292005E-01
     3.567367907291716        0.3579454759789524E-01
     3.576445179320448        0.3522062211301795E-01
     3.585522451349180        0.3465277737153082E-01
     3.594599723377913        0.3409093101547625E-01
     3.603676995406645        0.3353500155620300E-01
     3.612754267435377        0.3298490836491724E-01
     3.621831539464109        0.3244057166327573E-01
     3.630908811492841        0.3190191251402529E-01
     3.639986083521573        0.3136885281168877E-01
     3.649063355550305        0.3084131527329752E-01
     3.658140627579037        0.3031922342917421E-01
     3.667217899607770        0.2980250161376429E-01
     3.676295171636502        0.2929107495651881E-01
     3.685372443665234        0.2878486937282897E-01
     3.694449715693966        0.2828381155501282E-01
     3.703526987722698        0.2778782896335592E-01
     3.712604259751430        0.2729684981720586E-01
     3.721681531780162        0.2681080308612118E-01
     3.730758803808894        0.2632961848107701E-01
     3.739836075837626        0.2585322644572473E-01
     3.748913347866358        0.2538155814771011E-01
     3.757990619895090        0.2491454547004752E-01
     3.767067891923823        0.2445212100255149E-01
     3.776145163952555        0.2399421803332685E-01
     3.785222435981287        0.2354077054031625E-01
     3.794299708010019        0.2309171318290686E-01
     3.803376980038751        0.2264698129359562E-01
     3.812454252067483        0.2220651086971349E-01
     3.821531524096215        0.2177023856520929E-01
     3.830608796124947        0.2133810168249192E-01
     3.839686068153680        0.2091003816433365E-01
     3.848763340182412        0.2048598658583220E-01
     3.857840612211143        0.2006588614643191E-01
     3.866917884239875        0.1964967666200607E-01
     3.875995156268608        0.1923729855699789E-01
     3.885072428297340        0.1882869285662168E-01
     3.894149700326072        0.1842380117912380E-01
     3.903226972354804        0.1802256572810250E-01
     3.912304244383536        0.1762492928488896E-01
     3.921381516412268        0.1723083520098549E-01
     3.930458788441000        0.1684022739056520E-01
     3.939536060469733        0.1645305032302929E-01
     3.948613332498465        0.1606924901562402E-01
     3.957690604527197        0.1568876902611636E-01
     3.966767876555929        0.1531155644552770E-01
     3.975845148584661        0.1493755789092718E-01
     3.984922420613393        0.1456672049828117E-01
     3.993999692642125        0.1419899191536227E-01
     4.003076964670857        0.1383432029471510E-01
     4.012154236699589        0.1347265428667917E-01
     4.021231508728321        0.1311394303246917E-01
     4.030308780757053        0.1275813615731091E-01
     4.039386052785786        0.1240518376363533E-01
     4.048463324814517        0.1205503642432637E-01
     4.057540596843250        0.1170764517602605E-01
     4.066617868871982        0.1136296151249371E-01
     4.075695140900714        0.1102093737802082E-01
     4.084772412929446        0.1068152516089923E-01
     4.093849684958179        0.1034467768694434E-01
     4.102926956986910        0.1001034821307233E-01
     4.112004229015643        0.9678490422581549E-02
     4.121081501044374        0.9349058513227622E-02
     4.130158773073107        0.9022008339483483E-02
     4.139236045101839        0.8697302454829735E-02
     4.148313317130571        0.8374921138965482E-02
     4.157390589159303        0.8054877267474891E-02
     4.166467861188035        0.7737230409449459E-02
     4.175545133216767        0.7422096558053584E-02
     4.184622405245499        0.7109652165383893E-02
     4.193699677274231        0.6800132883729902E-02
     4.202776949302963        0.6493828234757747E-02
     4.211854221331696        0.6191073593372179E-02
     4.220931493360427        0.5892240708105628E-02
     4.230008765389160        0.5597727703032052E-02
     4.239086037417892        0.5307949229481117E-02
     4.248163309446624        0.5023327203929240E-02
     4.257240581475356        0.4744282391330564E-02
     4.266317853504089        0.4471226965779476E-02
     4.275395125532820        0.4204558093029789E-02
     4.284472397561553        0.3944652522069180E-02
     4.293549669590284        0.3691862137243015E-02
     4.302626941619017        0.3446510401760128E-02
     4.311704213647749        0.3208889612963044E-02
     4.320781485676481        0.2979258885999990E-02
     4.329858757705213        0.2757842783079930E-02
     4.338936029733945        0.2544830508622686E-02
     4.348013301762677        0.2340375595198201E-02
     4.357090573791409        0.2144596010394638E-02
     4.366167845820141        0.1957574620142202E-02
     4.375245117848873        0.1779359949161699E-02
     4.384322389877606        0.1609967183822358E-02
     4.393399661906337        0.1449379366499646E-02
     4.402476933935070        0.1297548733210378E-02
     4.411554205963802        0.1154398147403947E-02
     4.420631477992534        0.1019822581561934E-02
     4.429708750021266        0.8936905934063780E-03
     4.438786022049998        0.7758457326710584E-03
     4.447863294078730        0.6661077930342301E-03
     4.456940566107463        0.5642737829061635E-03
     4.466017838136194        0.4701184091705774E-03
     4.475095110164927        0.3833937062977603E-03
     4.484172382193659        0.3038270924127893E-03
     4.493249654222391        0.2311162999885163E-03
     4.502326926251123        0.1649173831605637E-03
     4.511404198279855        0.1048147745880546E-03
     4.520481470308587        0.5023151100203141E-04
     4.529558742337319         0.000000000000000    
  0  4  2  0  0.000000   #orbital l, n, z, is_polarized, population
 500    0.6102511884156548E-02     3.045153430194118     # npts, delta, cutoff
     0.000000000000000       -0.3662306551561346    
    0.6102511884156548E-02   -0.3661312406501265    
    0.1220502376831310E-01   -0.3658284356162564    
    0.1830753565246964E-01   -0.3653239023454908    
    0.2441004753662619E-01   -0.3646178565221822    
    0.3051255942078274E-01   -0.3637105990696896    
    0.3661507130493929E-01   -0.3626025162928290    
    0.4271758318909584E-01   -0.3612940795820739    
    0.4882009507325238E-01   -0.3597858449954705    
    0.5492260695740893E-01   -0.3580784527543605    
    0.6102511884156548E-01   -0.3561726266611626    
    0.6712763072572203E-01   -0.3540691734425593    
    0.7323014260987858E-01   -0.3517689820203334    
    0.7933265449403512E-01   -0.3492730227118675    
    0.8543516637819168E-01   -0.3465823463623484    
    0.9153767826234822E-01   -0.3436980834108050    
    0.9764019014650477E-01   -0.3406214428922345    
    0.1037427020306613       -0.3373537113781884    
    0.1098452139148179       -0.3338962518583178    
    0.1159477257989744       -0.3302505025654847    
    0.1220502376831310       -0.3264179757471537    
    0.1281527495672875       -0.3224002563858782    