<preamble>

<basis_specs>
===============================================================================
Ca                   Z=  20    Mass=  40.078        Charge= 0.17977+309
Lmxo=1 Lmxkb= 2    BasisType=split      Semic=T
L=0  Nsemic=1  Cnfigmx=4
          i=1  nzeta=1  polorb=0  (3s)  (semicore shell)
            splnorm:   0.15000    
               vcte:    40.000    
               rinn:    3.0268    
               qcoe:    0.0000    
               qyuk:    0.0000    
               qwid:   0.10000E-01
                rcs:    3.3597    
            lambdas:    1.0000    
          i=2  nzeta=2  polorb=0  (4s)  (to be polarized non-perturbatively)
            splnorm:   0.15000    
               vcte:    40.000    
               rinn:    8.0153    
               qcoe:    0.0000    
               qyuk:    0.0000    
               qwid:   0.10000E-01
                rcs:    8.8969      6.6016    
            lambdas:    1.0000      1.0000    
L=1  Nsemic=1  Cnfigmx=4
          i=1  nzeta=1  polorb=0  (3p)  (semicore shell)
            splnorm:   0.15000    
               vcte:    40.000    
               rinn:    3.4621    
               qcoe:    0.0000    
               qyuk:    0.0000    
               qwid:   0.10000E-01
                rcs:    3.8429    
            lambdas:    1.0000    
          i=2  nzeta=1  polorb=0  (4p)  (non-perturbative polarization shell)
            splnorm:   0.15000    
               vcte:    40.000    
               rinn:    8.0153    
               qcoe:    0.0000    
               qyuk:    0.0000    
               qwid:   0.10000E-01
                rcs:    8.8969    
            lambdas:    1.0000    
-------------------------------------------------------------------------------
L=0  Nkbl=2  erefs: 0.17977+309 0.17977+309
L=1  Nkbl=2  erefs: 0.17977+309 0.17977+309
L=2  Nkbl=1  erefs: 0.17977+309
===============================================================================
</basis_specs>

<pseudopotential_header>
 Ca pw nrl pcec
 ONCVPSP-3.2018-03-09Hamann's oncvpsp                        
 3s 2.00  r= 1.46/3p 6.00  r= 1.46/3d 0.00  r= 1.85/                    3s:3p:4s:
</pseudopotential_header>
</preamble>
Ca                            # Symbol
Ca                            # Label
   20                         # Atomic number
     10.0000000000                             # Valence charge
     40.0780000000        # Mass 
     121.065718337        # Self energy 
   1   5                      # Lmax for basis, no. of nl orbitals 
   2   6                      # Lmax for projectors, no. of nl KB projectors
# PAOs:__________________________
  0  3  1  0  2.000000   #orbital l, n, z, is_polarized, population
 500    0.6732906886374175E-02     3.359720536300713     # npts, delta, cutoff
     0.000000000000000        0.5514747112588696    
    0.6732906886374175E-02    0.5515981460116773    
    0.1346581377274835E-01    0.5519958425534922    
    0.2019872065912252E-01    0.5526582715024490    
    0.2693162754549670E-01    0.5535848183149286    
    0.3366453443187088E-01    0.5547746276103114    
    0.4039744131824505E-01    0.5562266017794788    
    0.4713034820461923E-01    0.5579394017947010    
    0.5386325509099340E-01    0.5599114485133295    
    0.6059616197736757E-01    0.5621409242843783    
    0.6732906886374175E-01    0.5646257748185046    
    0.7406197575011593E-01    0.5673637113092639    
    0.8079488263649010E-01    0.5703522128001426    
    0.8752778952286427E-01    0.5735885287937623    
    0.9426069640923845E-01    0.5770696821001667    
    0.1009936032956126        0.5807924719211435    
    0.1077265101819868        0.5847534771674324    
    0.1144594170683610        0.5889490600054859    
    0.1211923239547351        0.5933753696302116    
    0.1279252308411093        0.5980283462599230    
    0.1346581377274835        0.6029037253494527    
    0.1413910446138577        0.6079970420171577    
    0.1481239515002319        0.6133036356812795    
    0.1548568583866060        0.6188186549008915    
    0.1615897652729802        0.6245370624163901    
    0.1683226721593544        0.6304536403842645    
    0.1750555790457285        0.6365629958005976    
    0.1817884859321027        0.6428595661075240    
    0.1885213928184769        0.6493376249766181    
    0.1952542997048511        0.6559912882629271    
    0.2019872065912252        0.6628145201231382    
    0.2087201134775994        0.6698011392911082    
    0.2154530203639736        0.6769448255037694    
    0.2221859272503478        0.6842391260701731    
    0.2289188341367220        0.6916774625762093    
    0.2356517410230961        0.6992531377173323    
    0.2423846479094703        0.7069593422513809    
    0.2491175547958445        0.7147891620633998    
    0.2558504616822186        0.7227355853341337    
    0.2625833685685928        0.7307915098037228    
    0.2693162754549670        0.7389497501218789    
    0.2760491823413412        0.7472030452757082    
    0.2827820892277154        0.7555440660861438    
    0.2895149961140895        0.7639654227638131    
    0.2962479030004637        0.7724596725150219    
    0.3029808098868378        0.7810193271884165    
    0.3097137167732120        0.7896368609527507    
    0.3164466236595862        0.7983047179961166    
    0.3231795305459604        0.8070153202368755    
    0.3299124374323346        0.8157610750364812    
    0.3366453443187087        0.8245343829043327    
    0.3433782512050829        0.8333276451847317    
    0.3501111580914571        0.8421332717160334    
    0.3568440649778313        0.8509436884520506    
    0.3635769718642055        0.8597513450357921    
    0.3703098787505796        0.8685487223156542    
    0.3770427856369538        0.8773283397942319    
    0.3837756925233280        0.8860827629999898    
    0.3905085994097021        0.8948046107721099    
    0.3972415062960763        0.9034865624489583    
    0.4039744131824505        0.9121213649507387    
    0.4107073200688247        0.9207018397470204    
    0.4174402269551988        0.9292208897000492    
    0.4241731338415730        0.9376715057748702    
    0.4309060407279472        0.9460467736075425    
    0.4376389476143214        0.9543398799229418    
    0.4443718545006956        0.9625441187938574    
    0.4511047613870697        0.9706528977333945    
    0.4578376682734439        0.9786597436129307    
    0.4645705751598181        0.9865583083981996    
    0.4713034820461923        0.9943423746963503    
    0.4780363889325664         1.002005861107207    
    0.4847692958189406         1.009542827372231    
    0.4915022027053148         1.016947479315103    
    0.4982351095916889         1.024214173568172    
    0.5049680164780631         1.031337422079422    
    0.5117009233644373         1.038311896394974    
    0.5184338302508115         1.045132431712580    
    0.5251667371371856         1.051794030701956    
    0.5318996440235598         1.058291867088220    
    0.5386325509099340         1.064621288995149    
    0.5453654577963082         1.070777822045386    
    0.5520983646826824         1.076757172215190    
    0.5588312715690565         1.082555228441731    
    0.5655641784554307         1.088168064981457    
    0.5722970853418049         1.093591943518378    
    0.5790299922281791         1.098823315021724    
    0.5857628991145533         1.103858821352753    
    0.5924958060009274         1.108695296620986    
    0.5992287128873016         1.113329768290611    
    0.6059616197736757         1.117759458038192    
    0.6126945266600499         1.121981782363270    
    0.6194274335464240         1.125994352953892    
    0.6261603404327982         1.129794976809512    
    0.6328932473191724         1.133381656124081    
    0.6396261542055466         1.136752587932607    
    0.6463590610919208         1.139906163524822    
    0.6530919679782949         1.142840967629947    
    0.6598248748646691         1.145555777376969    
    0.6665577817510433         1.148049561035132    
    0.6732906886374175         1.150321476539733    
    0.6800235955237917         1.152370869808581    
    0.6867565024101658         1.154197272854817    
    0.6934894092965400         1.155800401702084    
    0.7002223161829142         1.157180154108257    
    0.7069552230692884         1.158336607104234    
    0.7136881299556626         1.159270014354533    
    0.7204210368420367         1.159980803346572    
    0.7271539437284109         1.160469572415824    
    0.7338868506147851         1.160737087614064    
    0.7406197575011593         1.160784279428239    
    0.7473526643875334         1.160612239357462    
    0.7540855712739076         1.160222216355872    
    0.7608184781602818         1.159615613149125    
    0.7675513850466560         1.158793982432354    
    0.7742842919330302         1.157759022957533    
    0.7810171988194042         1.156512575518152    
    0.7877501057057784         1.155056618839162    
    0.7944830125921526         1.153393265380128    
    0.8012159194785268         1.151524757059505    
    0.8079488263649010         1.149453460907919    
    0.8146817332512751         1.147181864658227    
    0.8214146401376493         1.144712572280139    
    0.8281475470240235         1.142048299466980    
    0.8348804539103977         1.139191869082172    
    0.8416133607967718         1.136146206572782    
    0.8483462676831460         1.132914335357446    
    0.8550791745695202         1.129499372195734    
    0.8618120814558944         1.125904522545911    
    0.8685449883422686         1.122133075917869    
    0.8752778952286427         1.118188401227783    
    0.8820108021150169         1.114073942160875    
    0.8887437090013911         1.109793226051193    
    0.8954766158877653         1.105349834617603    
    0.9022095227741395         1.100747391911759    
    0.9089424296605136         1.095989594696094    
    0.9156753365468878         1.091080191649860    
    0.9224082434332620         1.086022978898165    
    0.9291411503196362         1.080821795591723    
    0.9358740572060104         1.075480519537698    
    0.9426069640923845         1.070003062885948    
    0.9493398709787586         1.064393367874713    
    0.9560727778651328         1.058655402639561    
    0.9628056847515070         1.052793157089172    
    0.9695385916378811         1.046810638851250    
    0.9762714985242553         1.040711869291670    
    0.9830044054106295         1.034500879609696    
    0.9897373122970037         1.028181707011880    
    0.9964702191833779         1.021758390967024    
     1.003203126069752         1.015234969544368    
     1.009936032956126         1.008615475836945    
     1.016668939842500         1.001903934471839    
     1.023401846728875        0.9951043582088560    
     1.030134753615249        0.9882207446289559    
     1.036867660501623        0.9812570729135811    
     1.043600567387997        0.9742173007158270    
     1.050333474274371        0.9671053611242498    
     1.057066381160745        0.9599251597199253    
     1.063799288047120        0.9526805717272125    
     1.070532194933494        0.9453754392585465    
     1.077265101819868        0.9380135686534135    
     1.083998008706242        0.9305987279115625    
     1.090730915592616        0.9231346442203587    
     1.097463822478991        0.9156250015760855    
     1.104196729365365        0.9080734384988911    
     1.110929636251739        0.9004835458409668    
     1.117662543138113        0.8928588646874812    
     1.124395450024487        0.8852028843496764    
     1.131128356910861        0.8775190404495008    
     1.137861263797236        0.8698107130950363    
     1.144594170683610        0.8620812251459680    
     1.151327077569984        0.8543338405682555    
     1.158059984456358        0.8465717628771321    
     1.164792891342732        0.8387981336675255    
     1.171525798229107        0.8310160312309357    
     1.178258705115481        0.8232284692577994    
     1.184991612001855        0.8154383956243364    
     1.191724518888229        0.8076486912628488    
     1.198457425774603        0.7998621691144325    
     1.205190332660977        0.7920815731630458    
     1.211923239547351        0.7843095775498804    
     1.218656146433726        0.7765487857669460    
     1.225389053320100        0.7688017299288150    
     1.232121960206474        0.7610708701214349    
     1.238854867092848        0.7533585938269349    
     1.245587773979222        0.7456672154233547    
     1.252320680865596        0.7379989757582139    
     1.259053587751971        0.7303560417948480    
     1.265786494638345        0.7227405063304475    
     1.272519401524719        0.7151543877847243    
     1.279252308411093        0.7075996300581391    
     1.285985215297467        0.7000781024586300    
     1.292718122183842        0.6925915996957674    
     1.299451029070216        0.6851418419412872    
     1.306183935956590        0.6777304749549153    
     1.312916842842964        0.6703590702744318    
     1.319649749729338        0.6630291254688943    
     1.326382656615712        0.6557420644539408    
     1.333115563502087        0.6484992378680861    
     1.339848470388461        0.6413019235089242    
     1.346581377274835        0.6341513268281235    
     1.353314284161209        0.6270485814840963    
     1.360047191047583        0.6199947499512202    
     1.366780097933957        0.6129908241844514    
     1.373513004820332        0.6060377261479074    
     1.380245911706706        0.5991363073750456    
     1.386978818593080        0.5922873518051092    
     1.393711725479454        0.5854915762857811    
     1.400444632365828        0.5787496312957042    
     1.407177539252203        0.5720621019154877    
     1.413910446138577        0.5654295088115029    
     1.420643353024951        0.5588523092227418    
     1.427376259911325        0.5523308983803813    
     1.434109166797699        0.5458656110963764    
     1.440842073684073        0.5394567222034372    
     1.447574980570448        0.5331044460993488    
     1.454307887456822        0.5268089380617723    
     1.461040794343196        0.5205702999655526    
     1.467773701229570        0.5143885881075705    
     1.474506608115944        0.5082638218888624    
     1.481239515002319        0.5021959925198887    
     1.487972421888693        0.4961850703599673    
     1.494705328775067        0.4902310073517529    
     1.501438235661441        0.4843337363161994    
     1.508171142547815        0.4784931699432088    
     1.514904049434189        0.4727092018856530    
     1.521636956320564        0.4669817080288790    
     1.528369863206938        0.4613105474869597    
     1.535102770093312        0.4556955632376774    
     1.541835676979686        0.4501365828442648    
     1.548568583866060        0.4446334191702364    
     1.555301490752434        0.4391858710726926    
     1.562034397638808        0.4337937240697198    
     1.568767304525183        0.4284567509848671    
     1.575500211411557        0.4231747125694220    
     1.582233118297931        0.4179473581031661    
     1.588966025184305        0.4127744259742644    
     1.595698932070679        0.4076556442389462    
     1.602431838957054        0.4025907311615917    
     1.609164745843428        0.3975793957358366    
     1.615897652729802        0.3926213381872916    
     1.622630559616176        0.3877162504584366    
     1.629363466502550        0.3828638166762691    
     1.636096373388924        0.3780637136032213    
     1.642829280275299        0.3733156110719068    
     1.649562187161673        0.3686191724041676    
     1.656295094048047        0.3639740548149618    
     1.663028000934421        0.3593799098015301    
     1.669760907820795        0.3548363835183473    
     1.676493814707170        0.3503431171382872    
     1.683226721593544        0.3458997472004501    
     1.689959628479918        0.3415059059450860    
     1.696692535366292        0.3371612216360189    
     1.703425442252666        0.3328653188709820    
     1.710158349139040        0.3286178188802483    
     1.716891256025415        0.3244183398139443    
     1.723624162911789        0.3202664970184027    
     1.730357069798163        0.3161619033019207    
     1.737089976684537        0.3121041691902666    
     1.743822883570911        0.3080929031722609    
     1.750555790457285        0.3041277119357778    
     1.757288697343660        0.3002082005944542    
     1.764021604230034        0.2963339729054393    
     1.770754511116408        0.2925046314784598    
     1.777487418002782        0.2887197779764971    
     1.784220324889156        0.2849790133083593    
     1.790953231775531        0.2812819378134008    
     1.797686138661905        0.2776281514386724    
     1.804419045548279        0.2740172539087363    
     1.811151952434653        0.2704488448884022    
     1.817884859321027        0.2669225241386204    
     1.824617766207401        0.2634378916657547    
     1.831350673093776        0.2599945478644719    
     1.838083579980150        0.2565920936544476    
     1.844816486866524        0.2532301306111133    
     1.851549393752898        0.2499082610906353    
     1.858282300639272        0.2466260883493273    
     1.865015207525647        0.2433832166576862    
     1.871748114412021        0.2401792514092368    
     1.878481021298395        0.2370137992243563    
     1.885213928184769        0.2338864680492622    
     1.891946835071143        0.2307968672503239    
     1.898679741957517        0.2277446077038556    
     1.905412648843891        0.2247293018815607    
     1.912145555730266        0.2217505639317653    
     1.918878462616640        0.2188080097565950    
     1.925611369503014        0.2159012570852359    
     1.932344276389388        0.2130299255434187    
     1.939077183275762        0.2101936367192507    
     1.945810090162136        0.2073920142255407    
     1.952542997048511        0.2046246837587235    
     1.959275903934885        0.2018912731545179    
     1.966008810821259        0.1991914124404275    
     1.972741717707633        0.1965247338852026    
     1.979474624594007        0.1938908720453683    
     1.986207531480382        0.1912894638089239    
     1.992940438366756        0.1887201484363232    
     1.999673345253130        0.1861825675988255    
     2.006406252139504        0.1836763654143198    
     2.013139159025878        0.1812011884807100    
     2.019872065912252        0.1787566859069560    
     2.026604972798627        0.1763425093418530    
     2.033337879685001        0.1739583130006341    
     2.040070786571375        0.1716037536894765    
     2.046803693457749        0.1692784908279959    
     2.053536600344124        0.1669821864697931    
     2.060269507230498        0.1647145053211398    
     2.067002414116872        0.1624751147578603    
     2.073735321003246        0.1602636848404926    
     2.080468227889620        0.1580798883277829    
     2.087201134775994        0.1559234006885843    
     2.093934041662368        0.1537939001122206    
     2.100666948548743        0.1516910675173720    
     2.107399855435117        0.1496145865595466    
     2.114132762321491        0.1475641436371868    
     2.120865669207865        0.1455394278964717    
     2.127598576094239        0.1435401312348606    
     2.134331482980613        0.1415659483034355    
     2.141064389866988        0.1396165765080848    
     2.147797296753362        0.1376917160095815    
     2.154530203639736        0.1357910697225961    
     2.161263110526110        0.1339143433136935    
     2.167996017412484        0.1320612451983496    
     2.174728924298858        0.1302314865370379    
     2.181461831185233        0.1284247812304181    
     2.188194738071607        0.1266408459136700    
     2.194927644957981        0.1248793999500050    
     2.201660551844355        0.1231401654233971    
     2.208393458730729        0.1214228671305630    
     2.215126365617103        0.1197272325722282    
     2.221859272503478        0.1180529919437081    
     2.228592179389852        0.1163998781248391    
     2.235325086276226        0.1147676266692858    
     2.242057993162600        0.1131559757932591    
     2.248790900048975        0.1115646663636638    
     2.255523806935348        0.1099934418857150    
     2.262256713821723        0.1084420484900389    
     2.268989620708097        0.1069102349192903    
     2.275722527594471        0.1053977525143059    
     2.282455434480845        0.1039043551998229    
     2.289188341367220        0.1024297994697783    
     2.295921248253594        0.1009738443722194    
     2.302654155139968        0.9953625149383780E-01
     2.309387062026342        0.9811678494415432E-01
     2.316119968912716        0.9671521133937175E-01
     2.322852875799090        0.9533129978591294E-01
     2.329585782685465        0.9396482186366588E-01
     2.336318689571839        0.9261555160895156E-01
     2.343051596458213        0.9128326549723112E-01
     2.349784503344587        0.8996774242556996E-01
     2.356517410230961        0.8866876369487428E-01
     2.363250317117335        0.8738611299191580E-01
     2.369983224003710        0.8611957637115823E-01
     2.376716130890084        0.8486894223640053E-01
     2.383449037776458        0.8363400132225117E-01
     2.390181944662832        0.8241454667544611E-01
     2.396914851549206        0.8121037363602059E-01
     2.403647758435580        0.8002127981835191E-01
     2.410380665321955        0.7884706509208277E-01
     2.417113572208329        0.7768753156293198E-01
     2.423846479094703        0.7654248355341475E-01
     2.430579385981077        0.7541172758347740E-01
     2.437312292867451        0.7429507235104761E-01
     2.444045199753826        0.7319232871251949E-01
     2.450778106640199        0.7210330966318305E-01
     2.457511013526574        0.7102783031760353E-01
     2.464243920412948        0.6996570788996365E-01
     2.470976827299322        0.6891676167437313E-01
     2.477709734185696        0.6788081302515681E-01
     2.484442641072071        0.6685768533712468E-01
     2.491175547958445        0.6584720402583527E-01
     2.497908454844819        0.6484919650785635E-01
     2.504641361731193        0.6386349218103250E-01
     2.511374268617567        0.6288992240476428E-01
     2.518107175503941        0.6192832048030749E-01
     2.524840082390316        0.6097852163109565E-01
     2.531572989276690        0.6004036298309405E-01
     2.538305896163064        0.5911368354518942E-01
     2.545038803049438        0.5819832418962094E-01
     2.551771709935812        0.5729412763245802E-01
     2.558504616822186        0.5640093841412949E-01
     2.565237523708561        0.5551860288000825E-01
     2.571970430594935        0.5464696916105741E-01
     2.578703337481309        0.5378588715454032E-01
     2.585436244367683        0.5293520850480003E-01
     2.592169151254057        0.5209478658411141E-01
     2.598902058140431        0.5126447647360928E-01
     2.605634965026806        0.5044413494429707E-01
     2.612367871913180        0.4963362043813888E-01
     2.619100778799554        0.4883279304923748E-01
     2.625833685685928        0.4804151450510236E-01
     2.632566592572303        0.4725964814801038E-01
     2.639299499458676        0.4648705891646106E-01
     2.646032406345051        0.4572361332673077E-01
     2.652765313231425        0.4496917945452518E-01
     2.659498220117799        0.4422362691673664E-01
     2.666231127004173        0.4348682685330549E-01
     2.672964033890548        0.4275865190918663E-01
     2.679696940776922        0.4203897621642704E-01
     2.686429847663296        0.4132767537635362E-01
     2.693162754549670        0.4062462644187149E-01
     2.699895661436044        0.3992970789987774E-01
     2.706628568322418        0.3924279965379109E-01
     2.713361475208793        0.3856378300619597E-01
     2.720094382095167        0.3789254064160738E-01
     2.726827288981541        0.3722895660935226E-01
     2.733560195867915        0.3657291630657379E-01
     2.740293102754289        0.3592430646135450E-01
     2.747026009640663        0.3528301511596322E-01
     2.753758916527038        0.3464893161022447E-01
     2.760491823413412        0.3402194656501144E-01
     2.767224730299786        0.3340195186586299E-01
     2.773957637186160        0.3278884064672737E-01
     2.780690544072534        0.3218250727382820E-01
     2.787423450958908        0.3158284732965996E-01
     2.794156357845282        0.3098975759710696E-01
     2.800889264731657        0.3040313604368966E-01
     2.807622171618031        0.2982288180593868E-01
     2.814355078504405        0.2924889517389416E-01
     2.821087985390779        0.2868107757573340E-01
     2.827820892277153        0.2811933156252433E-01
     2.834553799163527        0.2756356079310764E-01
     2.841286706049902        0.2701367001910389E-01
     2.848019612936276        0.2646956507004899E-01
     2.854752519822650        0.2593115283865611E-01
     2.861485426709024        0.2539834126620293E-01
     2.868218333595399        0.2487103932804666E-01
     2.874951240481773        0.2434915701926350E-01
     2.881684147368147        0.2383260534041431E-01
     2.888417054254521        0.2332129628343565E-01
     2.895149961140895        0.2281514281765400E-01
     2.901882868027269        0.2231405887592668E-01
     2.908615774913644        0.2181795934090325E-01
     2.915348681800018        0.2132676003141308E-01
     2.922081588686392        0.2084037768897312E-01
     2.928814495572766        0.2035872996441879E-01
     2.935547402459140        0.1988173540465558E-01
     2.942280309345514        0.1940931343953116E-01
     2.949013216231889        0.1894138436882816E-01
     2.955746123118263        0.1847786934937433E-01
     2.962479030004637        0.1801869038227294E-01
     2.969211936891011        0.1756377030024975E-01
     2.975944843777385        0.1711303275511630E-01
     2.982677750663759        0.1666640220535009E-01
     2.989410657550134        0.1622380390378869E-01
     2.996143564436508        0.1578516388543952E-01
     3.002876471322882        0.1535040895540070E-01
     3.009609378209256        0.1491946667689658E-01
     3.016342285095631        0.1449226535942279E-01
     3.023075191982004        0.1406873404700303E-01
     3.029808098868379        0.1364880250655407E-01
     3.036541005754753        0.1323240121636028E-01
     3.043273912641127        0.1281946135465594E-01
     3.050006819527501        0.1240991478988204E-01
     3.056739726413876        0.1200369415920608E-01
     3.063472633300250        0.1160073395128129E-01
     3.070205540186624        0.1120097531492941E-01
     3.076938447072998        0.1080437661711047E-01
     3.083671353959372        0.1041092775690979E-01
     3.090404260845746        0.1002066386282458E-01
     3.097137167732121        0.9633674937501634E-02
     3.103870074618495        0.9250110152192877E-02
     3.110602981504869        0.8870177136552061E-02
     3.117335888391243        0.8494137393758146E-02
     3.124068795277617        0.8122299135165127E-02
     3.130801702163991        0.7755008678530292E-02
     3.137534609050365        0.7392641296031261E-02
     3.144267515936740        0.7035592139390790E-02
     3.151000422823114        0.6684267652233925E-02
     3.157733329709488        0.6339077713991254E-02
     3.164466236595862        0.6000428640635638E-02
     3.171199143482236        0.5668717086133986E-02
     3.177932050368610        0.5344324835314182E-02
     3.184664957254985        0.5027614445927938E-02
     3.191397864141359        0.4718925678817501E-02
     3.198130771027733        0.4418572645698179E-02
     3.204863677914107        0.4126841600840014E-02
     3.211596584800481        0.3843989303599128E-02
     3.218329491686855        0.3570241881704697E-02
     3.225062398573230        0.3305794129395616E-02
     3.231795305459604        0.3050809179168433E-02
     3.238528212345978        0.2805418490561483E-02
     3.245261119232352        0.2569722103668617E-02
     3.251994026118727        0.2343789108659302E-02
     3.258726933005101        0.2127658285153397E-02
     3.265459839891475        0.1921338866460943E-02
     3.272192746777849        0.1724811382843494E-02
     3.278925653664223        0.1538028534077327E-02
     3.285658560550597        0.1360916032954507E-02
     3.292391467436972        0.1193373344757685E-02
     3.299124374323346        0.1035274217148409E-02
     3.305857281209720        0.8864668382665675E-03
     3.312590188096094        0.7467733527856196E-03
     3.319323094982468        0.6159882489269264E-03
     3.326056001868842        0.4938746634082712E-03
     3.332788908755217        0.3801565518064796E-03
     3.339521815641591        0.2745017310184475E-03
     3.346254722527965        0.1764813973719013E-03
     3.352987629414339        0.8545187413937192E-04
     3.359720536300713         0.000000000000000    
  0  4  1  0  2.000000   #orbital l, n, z, is_polarized, population
 500    0.1782952240415296E-01     8.896931679672326     # npts, delta, cutoff
     0.000000000000000        0.2055746243358557    
    0.1782952240415296E-01    0.2058833210114551    
    0.3565904480830592E-01    0.2068170435251318    
    0.5348856721245887E-01    0.2083644903486339    
    0.7131808961661183E-01    0.2105126119903980    
    0.8914761202076479E-01    0.2132433159978322    
    0.1069771344249177        0.2165336391742456    
    0.1248066568290707        0.2203559643162662    
    0.1426361792332237        0.2246782778639287    
    0.1604657016373766        0.2294644647072034    