<preamble>

<basis_specs>
===============================================================================
Cl                   Z=  17    Mass=  35.450        Charge= 0.17977+309
Lmxo=2 Lmxkb= 2    BasisType=split      Semic=F
L=0  Nsemic=0  Cnfigmx=3
          i=1  nzeta=2  polorb=0  (3s)
            splnorm:   0.15000    
               vcte:    40.000    
               rinn:    3.9243    
               qcoe:    0.0000    
               qyuk:    0.0000    
               qwid:   0.10000E-01
                rcs:    4.3603      2.8846    
            lambdas:    1.0000      1.0000    
L=1  Nsemic=0  Cnfigmx=3
          i=1  nzeta=2  polorb=1  (3p)  (to be polarized perturbatively)
            splnorm:   0.15000    
               vcte:    40.000    
               rinn:    4.8531    
               qcoe:    0.0000    
               qyuk:    0.0000    
               qwid:   0.10000E-01
                rcs:    5.3923      3.6041    
            lambdas:    1.0000      1.0000    
L=2  Nsemic=0  Cnfigmx=3
          i=1  nzeta=0  polorb=0  (3d)  (perturbative polarization orbital) (from 3p)
-------------------------------------------------------------------------------
L=0  Nkbl=1  erefs: 0.17977+309
L=1  Nkbl=1  erefs: 0.17977+309
L=2  Nkbl=1  erefs: 0.17977+309
===============================================================================
</basis_specs>

<pseudopotential_header>
 Cl pw nrl pcec
 ONCVPSP-3.2018-03-09Hamann's oncvpsp                        
 3s 2.00  r= 1.56/3p 5.00  r= 1.35/3d 0.00  r= 1.76/                    3s:3p:
</pseudopotential_header>
</preamble>
Cl                            # Symbol
Cl                            # Label
   17                         # Atomic number
     7.00000000000                             # Valence charge
     35.4500000000        # Mass 
     58.9190195180        # Self energy 
   2   5                      # Lmax for basis, no. of nl orbitals 
   2   6                      # Lmax for projectors, no. of nl KB projectors
# PAOs:__________________________
  0  3  1  0  2.000000   #orbital l, n, z, is_polarized, population
 500    0.8738060014396622E-02     4.360291947183915     # npts, delta, cutoff
     0.000000000000000        0.1805517790971019    
    0.8738060014396622E-02    0.1806906609641930    
    0.1747612002879324E-01    0.1811134537490896    
    0.2621418004318986E-01    0.1818175726056923    
    0.3495224005758649E-01    0.1828022122080683    
    0.4369030007198311E-01    0.1840662485322890    
    0.5242836008637973E-01    0.1856082411423829    
    0.6116642010077635E-01    0.1874264365582857    
    0.6990448011517297E-01    0.1895187723821191    
    0.7864254012956959E-01    0.1918828821225361    
    0.8738060014396622E-01    0.1945161006794331    
    0.9611866015836285E-01    0.1974154704523339    
    0.1048567201727595        0.2005777480334305    
    0.1135947801871561        0.2039994114435240    
    0.1223328402015527        0.2076766678665242    
    0.1310709002159493        0.2116054618359660    
    0.1398089602303459        0.2157814838252378    
    0.1485470202447426        0.2202001791919107    
    0.1572850802591392        0.2248567574257545    
    0.1660231402735358        0.2297462016497074    
    0.1747612002879324        0.2348632783232354    
    0.1834992603023290        0.2402025470981890    
    0.1922373203167257        0.2457583707783803    
    0.2009753803311223        0.2515249253357112    
    0.2097134403455189        0.2574962099376849    
    0.2184515003599155        0.2636660569435704    
    0.2271895603743121        0.2700281418292760    
    0.2359276203887088        0.2765759930041217    
    0.2446656804031054        0.2833030014861270    
    0.2534037404175020        0.2902024304061075    
    0.2621418004318987        0.2972674243147553    
    0.2708798604462953        0.3044910182709302    
    0.2796179204606919        0.3118661466935267    
    0.2883559804750885        0.3193856519635067    
    0.2970940404894851        0.3270422927668942    
    0.3058321005038818        0.3348287521737175    
    0.3145701605182784        0.3427376454519533    
    0.3233082205326750        0.3507615276194886    
    0.3320462805470716        0.3588929007408593    
    0.3407843405614682        0.3671242209790587    
    0.3495224005758649        0.3754479054159757    
    0.3582604605902615        0.3838563386579472    
    0.3669985206046581        0.3923418792455481    
    0.3757365806190547        0.4008968658889620    
    0.3844746406334514        0.4095136235521249    
    0.3932127006478480        0.4181844694102763    
    0.4019507606622446        0.4269017187065379    
    0.4106888206766412        0.4356576905337355    
    0.4194268806910378        0.4444447135677824    
    0.4281649407054345        0.4532551317786582    
    0.4369030007198311        0.4620813101442582    
    0.4456410607342277        0.4709156403912531    
    0.4543791207486243        0.4797505467855181    
    0.4631171807630209        0.4885784919927889    
    0.4718552407774176        0.4973919830278776    
    0.4805933007918142        0.5061835773082130    
    0.4893313608062108        0.5149458888245629    
    0.4980694208206075        0.5236715944386580    
    0.5068074808350040        0.5323534403141172    
    0.5155455408494006        0.5409842484835499    
    0.5242836008637973        0.5495569235511163    
    0.5330216608781939        0.5580644595261360    
    0.5417597208925905        0.5664999467796336    
    0.5504977809069872        0.5748565791120366    
    0.5592358409213838        0.5831276609166547    
    0.5679739009357804        0.5913066144200696    
    0.5767119609501771        0.5993869869772872    
    0.5854500209645737        0.6073624583963900    
    0.5941880809789702        0.6152268482645916    
    0.6029261409933669        0.6229741232450360    
    0.6116642010077635        0.6305984043114612    
    0.6204022610221601        0.6380939738859616    
    0.6291403210365567        0.6454552828435904    
    0.6378783810509534        0.6526769573464439    
    0.6466164410653500        0.6597538054691858    
    0.6553545010797466        0.6666808235777313    
    0.6640925610941433        0.6734532024229700    
    0.6728306211085399        0.6800663329120520    
    0.6815686811229364        0.6865158115207858    
    0.6903067411373331        0.6927974453121980    
    0.6990448011517297        0.6989072565281569    
    0.7077828611661263        0.7048414867232582    
    0.7165209211805230        0.7105966004127773    
    0.7252589811949196        0.7161692882095123    
    0.7339970412093162        0.7215564694275537    
    0.7427351012237129        0.7267552941346325    
    0.7514731612381095        0.7317631446384129    
    0.7602112212525061        0.7365776363961227    
    0.7689492812669028        0.7411966183409572    
    0.7776873412812993        0.7456181726229630    
    0.7864254012956959        0.7498406137663365    
    0.7951634613100925        0.7538624872493408    
    0.8039015213244892        0.7576825675172736    
    0.8126395813388858        0.7612998554430621    
    0.8213776413532824        0.7647135752540335    
    0.8301157013676791        0.7679231709472760    
    0.8388537613820757        0.7709283022195436    
    0.8475918213964723        0.7737288399410573    
    0.8563298814108690        0.7763248612055546    
    0.8650679414252656        0.7787166439916648    
    0.8738060014396621        0.7809046614730498    
    0.8825440614540588        0.7828895760166938    
    0.8912821214684554        0.7846722329103195    
    0.9000201814828520        0.7862536538610353    
    0.9087582414972486        0.7876350303080270    
    0.9174963015116453        0.7888177165924107    
    0.9262343615260419        0.7898032230271863    
    0.9349724215404385        0.7905932089096354    
    0.9437104815548352        0.7911894755175340    
    0.9524485415692318        0.7915939591290651    
    0.9611866015836283        0.7918087241045750    
    0.9699246615980250        0.7918359560660932    
    0.9786627216124216        0.7916779552080316    
    0.9874007816268182        0.7913371297696793    
    0.9961388416412149        0.7908159896969720    
     1.004876901655611        0.7901171405177294    
     1.013614961670008        0.7892432774510011    
     1.022353021684405        0.7881971797674887    
     1.031091081698801        0.7869817054142427    
     1.039829141713198        0.7855997859129723    
     1.048567201727595        0.7840544215374337    
     1.057305261741991        0.7823486767715518    
     1.066043321756388        0.7804856760461295    
     1.074781381770785        0.7784685997483844    
     1.083519441785181        0.7763006804950342    
     1.092257501799578        0.7739851996563810    
     1.100995561813974        0.7715254841157776    
     1.109733621828371        0.7689249032460773    
     1.118471681842768        0.7661868660821878    
     1.127209741857164        0.7633148186667388    
     1.135947801871561        0.7603122418114384    
     1.144685861885957        0.7571826481015244    
     1.153423921900354        0.7539295798277112    
     1.162161981914751        0.7505566070842937    
     1.170900041929147        0.7470673253861884    
     1.179638101943544        0.7434653534950140    
     1.188376161957940        0.7397543312281041    
     1.197114221972337        0.7359379172238829    
     1.205852281986734        0.7320197866383560    
     1.214590342001130        0.7280036287492817    
     1.223328402015527        0.7238931435024274    
     1.232066462029924        0.7196920380157275    
     1.240804522044320        0.7154040273068203    
     1.249542582058717        0.7110328297266538    
     1.258280642073113        0.7065821637425368    
     1.267018702087510        0.7020557446228957    
     1.275756762101907        0.6974572809353907    
     1.284494822116303        0.6927904708574962    
     1.293232882130700        0.6880589983021370    
     1.301970942145097        0.6832665288644271    
     1.310709002159493        0.6784167055989927    
     1.319447062173890        0.6735131446407198    
     1.328185122188287        0.6685594306849759    
     1.336923182202683        0.6635591123464373    
     1.345661242217080        0.6585156974184978    
     1.354399302231476        0.6534326480578969    
     1.363137362245873        0.6483133759215182    
     1.371875422260270        0.6431612372844334    
     1.380613482274666        0.6379795281699641    
     1.389351542289063        0.6327714795239602    
     1.398089602303459        0.6275402524665487    
     1.406827662317856        0.6222889336552598    
     1.415565722332253        0.6170205307937521    
     1.424303782346649        0.6117379683202360    
     1.433041842361046        0.6064440833092426    
     1.441779902375443        0.6011416216194913    
     1.450517962389839        0.5958332343194114    
     1.459256022404236        0.5905214744202478    
     1.467994082418632        0.5852087939447708    
     1.476732142433029        0.5798975413573417    
     1.485470202447426        0.5745899593785487    
     1.494208262461822        0.5692881832048091    
     1.502946322476219        0.5639942391502742    
     1.511684382490616        0.5587100437046840    
     1.520422442505012        0.5534374029536966    
     1.529160502519409        0.5481780129714533    
     1.537898562533806        0.5429334607786475    
     1.546636622548202        0.5377052232004174    
     1.555374682562599        0.5324946664994430    
     1.564112742576995        0.5273030538193354    
     1.572850802591392        0.5221315593455735    
     1.581588862605789        0.5169812842542719    
     1.590326922620185        0.5118532717514701    
     1.599064982634582        0.5067485158750867    
     1.607803042648978        0.5016679617778963    
     1.616541102663375        0.4966125046702961    
     1.625279162677772        0.4915829918353246    
     1.634017222692168        0.4865802249285758    
     1.642755282706565        0.4816049615323039    
     1.651493342720961        0.4766579166288298    
     1.660231402735358        0.4717397641017849    
     1.668969462749755        0.4668511381954030    
     1.677707522764151        0.4619926349283201    
     1.686445582778548        0.4571648134646595    
     1.695183642792945        0.4523681974435184    
     1.703921702807341        0.4476032762679287    
     1.712659762821738        0.4428705063543534    
     1.721397822836134        0.4381703123437492    
     1.730135882850531        0.4335030882752182    
     1.738873942864928        0.4288691987232428    
     1.747612002879324        0.4242689798994828    
     1.756350062893721        0.4197027407200916    
     1.765088122908118        0.4151707638394977    
     1.773826182922514        0.4106733066515557    
     1.782564242936911        0.4062106022589803    
     1.791302302951308        0.4017828604119383    
     1.800040362965704        0.3973902684166566    
     1.808778422980101        0.3930329920148920    
     1.817516482994497        0.3887111762350840    
     1.826254543008894        0.3844249462159918    
     1.834992603023291        0.3801744080036064    
     1.843730663037687        0.3759596493220982    
     1.852468723052084        0.3717807403195512    
     1.861206783066480        0.3676377342892161    
     1.869944843080877        0.3635306683669928    
     1.878682903095274        0.3594595642058354    
     1.887420963109670        0.3554244286277625    
     1.896159023124067        0.3514252542541318    
     1.904897083138464        0.3474620201148204    
     1.913635143152860        0.3435346922369418    
     1.922373203167257        0.3396432242137110    
     1.931111263181653        0.3357875577540528    
     1.939849323196050        0.3319676232135331    
     1.948587383210447        0.3281833401071789    
     1.957325443224843        0.3244346176047338    
     1.966063503239240        0.3207213550088939    
     1.974801563253636        0.3170434422170286    
     1.983539623268033        0.3134007601669096    
     1.992277683282430        0.3097931812669311    
     2.001015743296827        0.3062205698113012    
     2.009753803311223        0.3026827823806749    
     2.018491863325619        0.2991796682286790    
     2.027229923340016        0.2957110696547681    
     2.035967983354413        0.2922768223638423    
     2.044706043368810        0.2888767558130432    
     2.053444103383206        0.2855106935461263    
     2.062182163397603        0.2821784535158143    
     2.070920223411999        0.2788798483944954    
     2.079658283426396        0.2756146858736596    
     2.088396343440793        0.2723827689524074    
     2.097134403455189        0.2691838962154021    
     2.105872463469586        0.2660178621005919    
     2.114610523483982        0.2628844571570341    
     2.123348583498379        0.2597834682931438    
     2.132086643512776        0.2567146790156716    
     2.140824703527172        0.2536778696597179    
     2.149562763541569        0.2506728176100675    
     2.158300823555966        0.2476992975141377    
     2.167038883570362        0.2447570814868029    
     2.175776943584759        0.2418459393073733    
     2.184515003599155        0.2389656386089777    
     2.193253063613552        0.2361159450606075    
     2.201991123627949        0.2332966225420567    
     2.210729183642345        0.2305074333120044    
     2.219467243656742        0.2277481381694564    
     2.228205303671138        0.2250184966087775    
     2.236943363685535        0.2223182669685199    
     2.245681423699932        0.2196472065742667    
     2.254419483714329        0.2170050718756762    
     2.263157543728725        0.2143916185779427    
     2.271895603743121        0.2118066017678401    
     2.280633663757518        0.2092497760345551    
     2.289371723771915        0.2067208955854643    
     2.298109783786312        0.2042197143570490    
     2.306847843800708        0.2017459861210960    
     2.315585903815105        0.1992994645863591    
     2.324323963829501        0.1968799034958292    
     2.333062023843898        0.1944870567197683    
     2.341800083858295        0.1921206783446539    
     2.350538143872691        0.1897805227581740    
     2.359276203887088        0.1874663447304091    
     2.368014263901484        0.1851778994913406    
     2.376752323915881        0.1829149428048035    
     2.385490383930278        0.1806772310390198    
     2.394228443944674        0.1784645212338250    
     2.402966503959071        0.1762765711647047    
     2.411704563973468        0.1741131394037632    
     2.420442623987864        0.1719739853777188    
     2.429180684002261        0.1698588694230443    
     2.437918744016657        0.1677675528383513    
     2.446656804031054        0.1656997979341113    
     2.455394864045451        0.1636553680798187    
     2.464132924059848        0.1616340277486836    
     2.472870984074244        0.1596355425599414    
     2.481609044088640        0.1576596793188720    
     2.490347104103037        0.1557062060546092    
     2.499085164117434        0.1537748920558190    
     2.507823224131831        0.1518655079043309    
     2.516561284146227        0.1499778255067933    
     2.525299344160624        0.1481116181244280    
     2.534037404175020        0.1462666604009542    
     2.542775464189417        0.1444427283887536    
     2.551513524203814        0.1426395995733359    
     2.560251584218210        0.1408570528961764    
     2.568989644232607        0.1390948687759834    
     2.577727704247003        0.1373528291284556    
     2.586465764261400        0.1356307173845887    
     2.595203824275797        0.1339283185075845    
     2.603941884290193        0.1322454190084210    
     2.612679944304590        0.1305818069601300    
     2.621418004318986        0.1289372720108376    
     2.630156064333383        0.1273116053956129    
     2.638894124347780        0.1257045999471741    
     2.647632184362176        0.1241160501054985    
     2.656370244376573        0.1225457519263725    
     2.665108304390970        0.1209935030889367    
     2.673846364405366        0.1194591029022575    
     2.682584424419763        0.1179423523109668    
     2.691322484434159        0.1164430539000108    
     2.700060544448556        0.1149610118985410    
     2.708798604462953        0.1134960321829857    
     2.717536664477350        0.1120479222793358    
     2.726274724491746        0.1106164913646776    
     2.735012784506142        0.1092015502680040    
     2.743750844520539        0.1078029114703369    
     2.752488904534936        0.1064203891041893    
     2.761226964549333        0.1050537989523962    
     2.769965024563729        0.1037029584463418    
     2.778703084578126        0.1023676866636114    
     2.787441144592522        0.1010478043250892    
     2.796179204606919        0.9974313379153599E-01
     2.804917264621316        0.9845349905965867E-01
     2.813655324635712        0.9717872575770763E-01
     2.822393384650109        0.9591864114061219E-01
     2.831131444664505        0.9467307408468592E-01
     2.839869504678902        0.9344185508191606E-01
     2.848607564693299        0.9222481623386028E-01
     2.857345624707695        0.9102179124516926E-01
     2.866083684722092        0.8983261541675208E-01
     2.874821744736488        0.8865712563860646E-01
     2.883559804750885        0.8749516038232652E-01
     2.892297864765282        0.8634655969330871E-01
     2.901035924779678        0.8521116518266827E-01
     2.909773984794075        0.8408882001888537E-01
     2.918512044808472        0.8297936891919305E-01
     2.927250104822868        0.8188265814072364E-01
     2.935988164837265        0.8079853547142371E-01
     2.944726224851661        0.7972685022075596E-01
     2.953464284866058        0.7866745321019758E-01
     2.962202344880455        0.7762019676354692E-01
     2.970940404894852        0.7658493469705352E-01
     2.979678464909248        0.7556152230937857E-01
     2.988416524923645        0.7454981637140164E-01
     2.997154584938041        0.7354967511588006E-01
     3.005892644952438        0.7256095822697402E-01
     3.014630704966835        0.7158352682964443E-01
     3.023368764981231        0.7061724347893733E-01
     3.032106824995628        0.6966197214915568E-01
     3.040844885010024        0.6871757822293695E-01
     3.049582945024421        0.6778392848024012E-01
     3.058321005038818        0.6686089108725168E-01
     3.067059065053214        0.6594833558521215E-01
     3.075797125067611        0.6504613287917529E-01
     3.084535185082007        0.6415415522671054E-01
     3.093273245096404        0.6327227622655483E-01
     3.102011305110801        0.6240037080721472E-01
     3.110749365125197        0.6153831521552567E-01
     3.119487425139594        0.6068598700517870E-01
     3.128225485153990        0.5984326502521702E-01
     3.136963545168387        0.5901002940851015E-01
     3.145701605182784        0.5818616156021057E-01
     3.154439665197180        0.5737154414619568E-01
     3.163177725211577        0.5656606108150239E-01
     3.171915785225974        0.5576959751875901E-01
     3.180653845240370        0.5498203983661525E-01
     3.189391905254767        0.5420327562818032E-01
     3.198129965269163        0.5343319368946774E-01
     3.206868025283560        0.5267168400785432E-01
     3.215606085297957        0.5191863775055536E-01
     3.224344145312354        0.5117394725311951E-01
     3.233082205326750        0.5043750600794751E-01
     3.241820265341147        0.4970920865283747E-01
     3.250558325355543        0.4898895095955975E-01
     3.259296385369940        0.4827662982246428E-01
     3.268034445384337        0.4757214324712325E-01
     3.276772505398733        0.4687539033901185E-01
     3.285510565413130        0.4618627129222883E-01
     3.294248625427526        0.4550468737826079E-01
     3.302986685441923        0.4483054093479071E-01
     3.311724745456320        0.4416373535455364E-01
     3.320462805470716        0.4350417507424190E-01
     3.329200865485113        0.4285176556346124E-01
     3.337938925499509        0.4220641331373897E-01
     3.346676985513906        0.4156802582758846E-01
     3.355415045528303        0.4093651160762751E-01
     3.364153105542699        0.4031178014575615E-01
     3.372891165557096        0.3969374191239284E-01
     3.381629225571492        0.3908230834577027E-01
     3.390367285585889        0.3847739184129409E-01
     3.399105345600286        0.3787890574096402E-01
     3.407843405614682        0.3728676432285811E-01
     3.416581465629079        0.3670088279068225E-01
     3.425319525643476        0.3612117726338667E-01
     3.434057585657872        0.3554756476484701E-01
     3.442795645672269        0.3497996321361427E-01
     3.451533705686666        0.3441829141273323E-01
     3.460271765701062        0.3386246903962862E-01
     3.469009825715459        0.3331241663606184E-01
     3.477747885729856        0.3276805559815751E-01
     3.486485945744252        0.3222930816650024E-01
     3.495224005758649        0.3169609741630321E-01
     3.503962065773045        0.3116834724764759E-01
     3.512700125787442        0.3064598237579413E-01
     3.521438185801839        0.3012892832156692E-01
     3.530176245816235        0.2961711140180951E-01
     3.538914305830632        0.2911045871991363E-01
     3.547652365845028        0.2860889815642098E-01
     3.556390425859425        0.2811235835969744E-01
     3.565128485873822        0.2762076873668197E-01
     3.573866545888218        0.2713405944370603E-01
     3.582604605902615        0.2665216137738881E-01
     3.591342665917011        0.2617500616560441E-01
     3.600080725931408        0.2570252615852223E-01
     3.608818785945805        0.2523465441972086E-01
     3.617556845960201        0.2477132471737495E-01
     3.626294905974598        0.2431247151551490E-01
     3.635032965988994        0.2385802996535951E-01
     3.643771026003391        0.2340793589672115E-01
     3.652509086017788        0.2296212580948357E-01
     3.661247146032184        0.2252053686515144E-01
     3.669985206046581        0.2208310687847329E-01
     3.678723266060978        0.2164977430913390E-01
     3.687461326075374        0.2122047825352067E-01
     3.696199386089771        0.2079515843655938E-01
     3.704937446104168        0.2037375520362167E-01
     3.713675506118564        0.1995620951250302E-01
     3.722413566132961        0.1954246292547035E-01
     3.731151626147358        0.1913245760138060E-01
     3.739889686161754        0.1872613628786727E-01
     3.748627746176151        0.1832344231359734E-01
     3.757365806190547        0.1792431958059644E-01
     3.766103866204944        0.1752871255664182E-01
     3.774841926219341        0.1713656626772390E-01
     3.783579986233737        0.1674782629057446E-01
     3.792318046248134        0.1636243874526238E-01
     3.801056106262530        0.1598035028785540E-01
     3.809794166276927        0.1560150810314798E-01
     3.818532226291324        0.1522585989745534E-01
     3.827270286305720        0.1485335389147094E-01
     3.836008346320117        0.1448393881319048E-01
     3.844746406334513        0.1411756389089817E-01
     3.853484466348910        0.1375417884621775E-01
     3.862222526363307        0.1339373388722560E-01
     3.870960586377703        0.1303617970162684E-01
     3.879698646392100        0.1268146744999370E-01
     3.888436706406497        0.1232954875906399E-01
     3.897174766420893        0.1198037571510216E-01
     3.905912826435290        0.1163390085731901E-01
     3.914650886449687        0.1129007717135250E-01
     3.923388946464083        0.1094885808280672E-01
     3.932127006478480        0.1061019745085028E-01
     3.940865066492876        0.1027404956187212E-01
     3.949603126507273        0.9940369123261268E-02
     3.958341186521670        0.9609111269971660E-02
     3.967079246536066        0.9280231891324207E-02
     3.975817306550463        0.8953690059313514E-02
     3.984555366564860        0.8629455572735577E-02
     3.993293426579256        0.8307521926098328E-02
     4.002031486593653        0.7987921055903228E-02
     4.010769546608049        0.7670735494060267E-02
     4.019507606622446        0.7356105415819253E-02
     4.028245666636843        0.7044230163402399E-02
     4.036983726651239        0.6735365099951817E-02
     4.045721786665636        0.6429815114410993E-02
     4.054459846680032        0.6127926078307246E-02
     4.063197906694429        0.5830075325583246E-02
     4.071935966708826        0.5536661948292473E-02
     4.080674026723222        0.5248097448688032E-02
     4.089412086737619        0.4964797086909691E-02
     4.098150146752015        0.4687172114351859E-02
     4.106888206766413        0.4415622978034239E-02
     4.115626266780809        0.4150533510926015E-02
     4.124364326795205        0.3892266078072477E-02
     4.133102386809602        0.3641157621139424E-02
     4.141840446823998        0.3397516529038887E-02
     4.150578506838396        0.3161620255541561E-02
     4.159316566852792        0.2933713603345929E-02
     4.168054626867189        0.2714007595938487E-02
     4.176792686881585        0.2502678862386649E-02
     4.185530746895981        0.2299869465003403E-02
     4.194268806910379        0.2105687104993801E-02
     4.203006866924775        0.1920205646284910E-02
     4.211744926939172        0.1743465902438394E-02
     4.220482986953568        0.1575476635567512E-02
     4.229221046967965        0.1416215719242471E-02
     4.237959106982362        0.1265631419086678E-02
     4.246697166996758        0.1123643744546165E-02
     4.255435227011155        0.9901458221634519E-03
     4.264173287025551        0.8650052328151710E-03
     4.272911347039948        0.7480652394623023E-03
     4.281649407054345        0.6391458015235646E-03
     4.290387467068741        0.5380442136977298E-03
     4.299125527083138        0.4445350918023156E-03
     4.307863587097534        0.3583691872925541E-03
     4.316601647111932        0.2792699675525119E-03
     4.325339707126328        0.2069255296021746E-03
     4.334077767140724        0.1409694213399571E-03
     4.342815827155121        0.8093005538438241E-04
     4.351553887169517        0.2604716522834898E-04
     4.360291947183915         0.000000000000000    
  0  3  2  0  0.000000   #orbital l, n, z, is_polarized, population
 500    0.5780662224559130E-02     2.884550450055006     # npts, delta, cutoff
     0.000000000000000       -0.1742320675227212    
    0.5780662224559130E-02   -0.1741239079400122    
    0.1156132444911826E-01   -0.1737881894921045    
    0.1734198667367739E-01   -0.1732288389294652    
    0.2312264889823652E-01   -0.1724461344779258    
    0.2890331112279565E-01   -0.1714404632864774    
    0.3468397334735478E-01   -0.1702123221083843    
    0.4046463557191391E-01   -0.1687623169352963    
    0.4624529779647304E-01   -0.1670911624019840    
    0.5202596002103217E-01   -0.1651996810541936    
    0.5780662224559130E-01   -0.1630888024998902    
    0.6358728447015043E-01   -0.1607595624512628    
    0.6936794669470955E-01   -0.1582131016618591    
    0.7514860891926868E-01   -0.1554506647624825    
    0.8092927114382782E-01   -0.1524735989993828    
    0.8670993336838695E-01   -0.1492833528783799    
    0.9249059559294608E-01   -0.1458814747187268    
    0.9827125781750520E-01   -0.1422696111207075    
    0.1040519200420643       -0.1384495053511450    
    0.1098325822666235       -0.1344229956511770    
    0.1156132444911826       -0.1301920134708002    
    0.1213939067157417       -0.1257585816348323    