<preamble>

<basis_specs>
===============================================================================
Cs                   Z=  55    Mass=  132.91        Charge= 0.17977+309
Lmxo=1 Lmxkb= 2    BasisType=split      Semic=T
L=0  Nsemic=1  Cnfigmx=6
          i=1  nzeta=1  polorb=0  (5s)  (semicore shell)
            splnorm:   0.15000    
               vcte:    40.000    
               rinn:    3.9957    
               qcoe:    0.0000    
               qyuk:    0.0000    
               qwid:   0.10000E-01
                rcs:    4.4397    
            lambdas:    1.0000    
          i=2  nzeta=2  polorb=0  (6s)  (to be polarized non-perturbatively)
            splnorm:   0.15000    
               vcte:    40.000    
               rinn:    10.171    
               qcoe:    0.0000    
               qyuk:    0.0000    
               qwid:   0.10000E-01
                rcs:    11.290      8.6251    
            lambdas:    1.0000      1.0000    
L=1  Nsemic=1  Cnfigmx=6
          i=1  nzeta=1  polorb=0  (5p)  (semicore shell)
            splnorm:   0.15000    
               vcte:    40.000    
               rinn:    4.8482    
               qcoe:    0.0000    
               qyuk:    0.0000    
               qwid:   0.10000E-01
                rcs:    5.3815    
            lambdas:    1.0000    
          i=2  nzeta=1  polorb=0  (6p)  (non-perturbative polarization shell)
            splnorm:   0.15000    
               vcte:    40.000    
               rinn:    10.171    
               qcoe:    0.0000    
               qyuk:    0.0000    
               qwid:   0.10000E-01
                rcs:    11.290    
            lambdas:    1.0000    
-------------------------------------------------------------------------------
L=0  Nkbl=2  erefs: 0.17977+309 0.17977+309
L=1  Nkbl=2  erefs: 0.17977+309 0.17977+309
L=2  Nkbl=1  erefs: 0.17977+309
===============================================================================
</basis_specs>

<pseudopotential_header>
 Cs pw nrl pcec
 ONCVPSP-3.2020-12-01Hamann's oncvpsp                        
 5s 2.00  r= 2.27/5p 6.00  r= 1.86/5d 0.00  r= 2.02/4f 0.00  r= 2.07/   5s:5p:6s:
</pseudopotential_header>
</preamble>
Cs                            # Symbol
Cs                            # Label
   55                         # Atomic number
     9.00000000000                             # Valence charge
     132.910000000        # Mass 
     71.8131627169        # Self energy 
   1   5                      # Lmax for basis, no. of nl orbitals 
   2   6                      # Lmax for projectors, no. of nl KB projectors
# PAOs:__________________________
  0  5  1  0  2.000000   #orbital l, n, z, is_polarized, population
 500    0.8897133179633507E-02     4.439669456637120     # npts, delta, cutoff
     0.000000000000000        0.1473378581526930    
    0.8897133179633507E-02    0.1474039045445642    
    0.1779426635926701E-01    0.1476086189227625    
    0.2669139953890052E-01    0.1479496659366433    
    0.3558853271853403E-01    0.1484268271875759    
    0.4448566589816753E-01    0.1490397979181103    
    0.5338279907780104E-01    0.1497881868529737    
    0.6227993225743456E-01    0.1506715164672841    
    0.7117706543706806E-01    0.1516892233710697    
    0.8007419861670156E-01    0.1528406587751192    
    0.8897133179633507E-01    0.1541250890306964    
    0.9786846497596859E-01    0.1555416962405966    
    0.1067655981556021        0.1570895789401927    
    0.1156627313352356        0.1587677528474211    
    0.1245598645148691        0.1605751516807246    
    0.1334569976945026        0.1625106280439384    
    0.1423541308741361        0.1645729543770658    
    0.1512512640537696        0.1667608239718169    
    0.1601483972334031        0.1690728520507262    
    0.1690455304130366        0.1715075769085977    
    0.1779426635926701        0.1740634611149565    
    0.1868397967723037        0.1767388927761278    
    0.1957369299519372        0.1795321868554972    
    0.2046340631315707        0.1824415865504517    
    0.2135311963112042        0.1854652647244369    
    0.2224283294908377        0.1886013253925132    
    0.2313254626704712        0.1918478052587441    
    0.2402225958501047        0.1952026753036939    
    0.2491197290297382        0.1986638424202645    
    0.2580168622093717        0.2022291510960615    
    0.2669139953890052        0.2058963851404295    
    0.2758111285686387        0.2096632694542608    
    0.2847082617482722        0.2135274718406431    
    0.2936053949279058        0.2174866048543796    
    0.3025025281075392        0.2215382276883792    
    0.3113996612871728        0.2256798480948896    
    0.3202967944668063        0.2299089243395188    
    0.3291939276464398        0.2342228671859662    
    0.3380910608260733        0.2386190419093729    
    0.3469881940057068        0.2430947703361666    
    0.3558853271853403        0.2476473329082860    
    0.3647824603649738        0.2522739707696368    
    0.3736795935446073        0.2569718878726401    
    0.3825767267242408        0.2617382531027199    
    0.3914738599038743        0.2665702024185765    
    0.4003709930835078        0.2714648410060999    
    0.4092681262631414        0.2764192454437666    
    0.4181652594427748        0.2814304658773936    
    0.4270623926224084        0.2864955282021045    
    0.4359595258020419        0.2916114362494042    
    0.4448566589816754        0.2967751739772496    
    0.4537537921613089        0.3019837076610412    
    0.4626509253409424        0.3072339880834652    
    0.4715480585205759        0.3125229527211523    
    0.4804451917002094        0.3178475279261387    
    0.4893423248798429        0.3232046311001395    
    0.4982394580594764        0.3285911728596870    
    0.5071365912391099        0.3340040591902069    
    0.5160337244187434        0.3394401935871483    
    0.5249308575983770        0.3448964791823189    
    0.5338279907780105        0.3503698208536112    
    0.5427251239576439        0.3558571273163587    
    0.5516222571372774        0.3613553131945880    
    0.5605193903169110        0.3668613010704915    
    0.5694165234965445        0.3723720235104824    
    0.5783136566761780        0.3778844250662488    
    0.5872107898558115        0.3833954642492635    
    0.5961079230354450        0.3889021154772689    
    0.6050050562150785        0.3944013709912972    
    0.6139021893947120        0.3998902427418398    
    0.6227993225743456        0.4053657642428525    
    0.6316964557539790        0.4108249923922951    
    0.6405935889336125        0.4162650092580179    
    0.6494907221132461        0.4216829238278061    
    0.6583878552928796        0.4270758737224912    
    0.6672849884725131        0.4324410268710745    
    0.6761821216521465        0.4377755831468699    
    0.6850792548317801        0.4430767759637361    
    0.6939763880114136        0.4483418738315147    
    0.7028735211910471        0.4535681818698660    
    0.7117706543706805        0.4587530432797230    
    0.7206677875503141        0.4638938407716807    
    0.7295649207299476        0.4689879979506612    
    0.7384620539095811        0.4740329806562620    
    0.7473591870892147        0.4790262982582668    
    0.7562563202688481        0.4839655049068238    
    0.7651534534484816        0.4888482007368861    
    0.7740505866281151        0.4936720330265283    
    0.7829477198077487        0.4984346973088375    
    0.7918448529873822        0.5031339384371132    
    0.8007419861670156        0.5077675516031565    
    0.8096391193466492        0.5123333833085052    
    0.8185362525262827        0.5168293322884842    
    0.8274333857059162        0.5212533503890350    
    0.8363305188855497        0.5256034433962832    
    0.8452276520651832        0.5298776718188933    
    0.8541247852448167        0.5340741516232838    
    0.8630219184244502        0.5381910549218191    
    0.8719190516040838        0.5422266106141408    
    0.8808161847837173        0.5461791049818471    
    0.8897133179633507        0.5500468822367524    
    0.8986104511429842        0.5538283450230146    
    0.9075075843226178        0.5575219548734457    
    0.9164047175022513        0.5611262326203480    
    0.9253018506818848        0.5646397587612696    
    0.9341989838615183        0.5680611737800907    
    0.9430961170411518        0.5713891784238810    
    0.9519932502207853        0.5746225339360158    
    0.9608903834004188        0.5777600622460298    
    0.9697875165800524        0.5808006461167654    
    0.9786846497596858        0.5837432292493286    
    0.9875817829393193        0.5865868163464636    
    0.9964789161189529        0.5893304731349049    
     1.005376049298586        0.5919733263473483    
     1.014273182478220        0.5945145636646536    
     1.023170315657853        0.5969534336189273    
     1.032067448837487        0.5992892454581615    
     1.040964582017120        0.6015213689730873    
     1.049861715196754        0.6036492342869441    
     1.058758848376387        0.6056723316088556    
     1.067655981556021        0.6075902109515275    
     1.076553114735654        0.6094024818139822    
     1.085450247915288        0.6111088128300545    
     1.094347381094921        0.6127089313833800    
     1.103244514274555        0.6142026231896156    
     1.112141647454189        0.6155897318466279    
     1.121038780633822        0.6168701583533946    
     1.129935913813455        0.6180438605983712    
     1.138833046993089        0.6191108528180570    
     1.147730180172722        0.6200712050265214    
     1.156627313352356        0.6209250424166259    
     1.165524446531989        0.6216725447337040    
     1.174421579711623        0.6223139456224224    
     1.183318712891257        0.6228495319475851    
     1.192215846070890        0.6232796430896105    
     1.201112979250524        0.6236046702154179    
     1.210010112430157        0.6238250555254620    
     1.218907245609790        0.6239412914776348    
     1.227804378789424        0.6239539199887636    
     1.236701511969058        0.6238635316144295    
     1.245598645148691        0.6236707647078111    
     1.254495778328325        0.6233763045582628    
     1.263392911507958        0.6229808825103446    
     1.272290044687592        0.6224852750639839    
     1.281187177867225        0.6218903029564739    
     1.290084311046859        0.6211968302269916    
     1.298981444226492        0.6204057632643170    
     1.307878577406126        0.6195180498384313    
     1.316775710585759        0.6185346781166698    
     1.325672843765393        0.6174566756650820    
     1.334569976945026        0.6162851084356804    
     1.343467110124660        0.6150210797402130    
     1.352364243304293        0.6136657292111323    
     1.361261376483927        0.6122202317503909    
     1.370158509663560        0.6106857964667244    
     1.379055642843194        0.6090636656020461    
     1.387952776022827        0.6073551134476018    
     1.396849909202461        0.6055614452505188    
     1.405747042382094        0.6036839962115752    
     1.414644175561728        0.6017241552321745    
     1.423541308741361        0.5996832941843768    
     1.432438441920995        0.5975628250784610    
     1.441335575100628        0.5953641912488600    
     1.450232708280262        0.5930888602586047    
     1.459129841459895        0.5907383227562019    
     1.468026974639529        0.5883140913279157    
     1.476924107819162        0.5858176993460724    
     1.485821240998796        0.5832506998140146    
     1.494718374178429        0.5806146642083299    
     1.503615507358063        0.5779111813189816    
     1.512512640537696        0.5751418560879642    
     1.521409773717330        0.5723083084471191    
     1.530306906896963        0.5694121721557389    
     1.539204040076597        0.5664550936385904    
     1.548101173256230        0.5634387308249967    
     1.556998306435864        0.5603647519896119    
     1.565895439615497        0.5572348345955334    
     1.574792572795131        0.5540506641403875    
     1.583689705974764        0.5508139330069366    
     1.592586839154398        0.5475263380647263    
     1.601483972334031        0.5441895799053031    
     1.610381105513665        0.5408053637686973    
     1.619278238693298        0.5373753972565002    
     1.628175371872932        0.5339013892090952    
     1.637072505052565        0.5303850485909708    
     1.645969638232199        0.5268280833842186    
     1.654866771411832        0.5232321994908773    
     1.663763904591466        0.5195990996447817    
     1.672661037771099        0.5159304823335892    
     1.681558170950733        0.5122280407316430    
     1.690455304130366        0.5084934616443358    
     1.699352437310000        0.5047284244646466    
     1.708249570489633        0.5009346001425075    
     1.717146703669267        0.4971136501676688    
     1.726043836848900        0.4932672255667201    
     1.734940970028534        0.4893969659149273    
     1.743838103208168        0.4855044983635436    
     1.752735236387801        0.4815914366832419    
     1.761632369567435        0.4776593803243213    
     1.770529502747068        0.4737099134943244    
     1.779426635926701        0.4697446042537088    
     1.788323769106335        0.4657650036301944    
     1.797220902285968        0.4617726447524160    
     1.806118035465602        0.4577690420034897    
     1.815015168645236        0.4537556901951021    
     1.823912301824869        0.4497340637627111    
     1.832809435004503        0.4457056159824490    
     1.841706568184136        0.4416717782102902    
     1.850603701363770        0.4376339591440569    
     1.859500834543403        0.4335935441087935    
     1.868397967723037        0.4295518943660454    
     1.877295100902670        0.4255103464475603    
     1.886192234082304        0.4214702115139107    
     1.895089367261937        0.4174327747385085    
     1.903986500441571        0.4133992947174820    
     1.912883633621204        0.4093710029058641    
     1.921780766800838        0.4053491030805121    
     1.930677899980471        0.4013347708301563    
     1.939575033160105        0.3973291530729697    
     1.948472166339738        0.3933333676020138    
     1.957369299519372        0.3893485026588930    
     1.966266432699005        0.3853756165359314    
     1.975163565878639        0.3814157372071575    
     1.984060699058272        0.3774698619883634    
     1.992957832237906        0.3735389572264627    
     2.001854965417539        0.3696239580183641    
     2.010752098597173        0.3657257679595307    
     2.019649231776806        0.3618452589223869    
     2.028546364956440        0.3579832708646845    
     2.037443498136073        0.3541406116679246    
     2.046340631315707        0.3503180570059068    
     2.055237764495340        0.3465163502434175    
     2.064134897674974        0.3427362023650849    
     2.073032030854607        0.3389782919343473    
     2.081929164034241        0.3352432650824900    
     2.090826297213874        0.3315317355276535    
     2.099723430393508        0.3278442846236849    
     2.108620563573141        0.3241814614386830    
     2.117517696752775        0.3205437828630442    
     2.126414829932408        0.3169317337467900    
     2.135311963112042        0.3133457670659286    
     2.144209096291675        0.3097863041175575    
     2.153106229471309        0.3062537347433992    
     2.162003362650943        0.3027484175814229    
     2.170900495830576        0.2992706803451633    
     2.179797629010209        0.2958208201303430    
     2.188694762189843        0.2923991037483424    
     2.197591895369476        0.2890057680835751    
     2.206489028549110        0.2856410204155768    
     2.215386161728743        0.2823050388839687    
     2.224283294908377        0.2789979730983284    
     2.233180428088010        0.2757199448433770    
     2.242077561267644        0.2724710481464789    
     2.250974694447277        0.2692513489107371    
     2.259871827626911        0.2660608850601754    
     2.268768960806544        0.2628996682782666    
     2.277666093986178        0.2597676873464508    
     2.286563227165812        0.2566649117523642    
     2.295460360345445        0.2535912955142353    
     2.304357493525079        0.2505467808118563    
     2.313254626704712        0.2475313012460376    
     2.322151759884346        0.2445447836225018    
     2.331048893063979        0.2415871479247265    
     2.339946026243612        0.2386583068624400    
     2.348843159423246        0.2357581655482165    
     2.357740292602879        0.2328866220693254    
     2.366637425782513        0.2300435679430871    
     2.375534558962146        0.2272288885664394    
     2.384431692141780        0.2244424634361183    
     2.393328825321413        0.2216841664122195    
     2.402225958501047        0.2189538659889004    
     2.411123091680681        0.2162514255581566    
     2.420020224860314        0.2135767036647161    
     2.428917358039948        0.2109295542522397    
     2.437814491219581        0.2083098269013389    
     2.446711624399215        0.2057173670596312    
     2.455608757578848        0.2031520162640777    
     2.464505890758482        0.2006136123558170    
     2.473403023938115        0.1981019896877114    
     2.482300157117749        0.1956169793248257    
     2.491197290297382        0.1931584092380345    
     2.500094423477015        0.1907261044909669    
     2.508991556656649        0.1883198874204805    
     2.517888689836282        0.1859395778108568    
     2.526785823015916        0.1835849930619013    
     2.535682956195550        0.1812559483511320    
     2.544580089375183        0.1789522567902323    
     2.553477222554817        0.1766737295759335    
     2.562374355734450        0.1744201761355043    
     2.571271488914084        0.1721914042669983    
     2.580168622093717        0.1699872202744245    
     2.589065755273351        0.1678074290979922    
     2.597962888452984        0.1656518344395792    
     2.606860021632618        0.1635202388835693    
     2.615757154812251        0.1614124440131981    
     2.624654287991885        0.1593282505225501    
     2.633551421171518        0.1572674583243327    
     2.642448554351152        0.1552298666535646    
     2.651345687530785        0.1532152741672990    
     2.660242820710419        0.1512234790405084    
     2.669139953890052        0.1492542790582498    
     2.678037087069686        0.1473074717042205    
     2.686934220249319        0.1453828542458276    
     2.695831353428953        0.1434802238158714    
     2.704728486608586        0.1415993774909536    
     2.713625619788220        0.1397401123667129    
     2.722522752967854        0.1379022256299878    
     2.731419886147487        0.1360855146280048    
     2.740317019327120        0.1342897769346864    
     2.749214152506754        0.1325148104141717    
     2.758111285686387        0.1307604132816365    
     2.767008418866021        0.1290263841615025    
     2.775905552045654        0.1273125221431206    
     2.784802685225288        0.1256186268340040    
     2.793699818404921        0.1239444984106987    
     2.802596951584555        0.1222899376673623    
     2.811494084764188        0.1206547460621299    
     2.820391217943822        0.1190387257613364    
     2.829288351123455        0.1174416796816682    
     2.838185484303089        0.1158634115303117    
     2.847082617482722        0.1143037258431654    
     2.855979750662356        0.1127624280211795    
     2.864876883841990        0.1112393243648852    
     2.873774017021623        0.1097342221071760    
     2.882671150201257        0.1082469294443986    
     2.891568283380890        0.1067772555658092    
     2.900465416560523        0.1053250106814531    
     2.909362549740157        0.1038900060485204    
     2.918259682919790        0.1024720539962286    
     2.927156816099424        0.1010709679492854    
     2.936053949279057        0.9968656244997608E-01
     2.944951082458691        0.9831865317892785E-01
     2.953848215638324        0.9696705697459533E-01
     2.962745348817958        0.9563159185150913E-01
     2.971642481997591        0.9431207701733667E-01
     2.980539615177225        0.9300833288879028E-01
     2.989436748356859        0.9172018110642984E-01
     2.998333881536492        0.9044744454839447E-01
     3.007231014716126        0.8918994734310255E-01
     3.016128147895759        0.8794751488095989E-01
     3.025025281075393        0.8671997382510900E-01
     3.033922414255026        0.8550715212125362E-01
     3.042819547434660        0.8430887900659553E-01
     3.051716680614293        0.8312498501791378E-01
     3.060613813793926        0.8195530199881818E-01
     3.069510946973560        0.8079966310620781E-01
     3.078408080153193        0.7965790281596562E-01
     3.087305213332827        0.7852985692791452E-01
     3.096202346512460        0.7741536257006860E-01
     3.105099479692094        0.7631425820219760E-01
     3.113996612871728        0.7522638361874039E-01
     3.122893746051361        0.7415157995108657E-01
     3.131790879230995        0.7308968966925143E-01
     3.140688012410628        0.7204055658297001E-01
     3.149585145590262        0.7100402584223146E-01
     3.158482278769895        0.6997994393727705E-01
     3.167379411949529        0.6896815869808140E-01
     3.176276545129162        0.6796851929334033E-01
     3.185173678308796        0.6698087622898374E-01
     3.194070811488429        0.6600508134623255E-01
     3.202967944668063        0.6504098781922077E-01
     3.211865077847696        0.6408845015219841E-01
     3.220762211027330        0.6314732417633412E-01
     3.229659344206963        0.6221746704613461E-01
     3.238556477386597        0.6129873723549809E-01
     3.247453610566230        0.6039099453341430E-01
     3.256350743745864        0.5949410003933112E-01
     3.265247876925497        0.5860791615820126E-01
     3.274145010105131        0.5773230659521926E-01
     3.283042143284764        0.5686713635026956E-01
     3.291939276464398        0.5601227171209507E-01
     3.300836409644031        0.5516758025219858E-01
     3.309733542823665        0.5433293081849186E-01
     3.318630676003298        0.5350819352870465E-01
     3.327527809182932        0.5269323976356247E-01
     3.336424942362565        0.5188794215974714E-01
     3.345322075542199        0.5109217460265223E-01
     3.354219208721832        0.5030581221893816E-01
     3.363116341901466        0.4952873136890457E-01
     3.372013475081099        0.4876080963868541E-01
     3.380910608260733        0.4800192583227540E-01
     3.389807741440366        0.4725195996340147E-01
     3.398704874620000        0.4651079324724418E-01
     3.407602007799633        0.4577830809201853E-01
     3.416499140979267        0.4505438809042311E-01
     3.425396274158901        0.4433891801096670E-01
     3.434293407338534        0.4363178378917576E-01
     3.443190540518168        0.4293287251869521E-01
     3.452087673697801        0.4224207244228714E-01
     3.460984806877434        0.4155927294273338E-01
     3.469881940057068        0.4088436453365143E-01
     3.478779073236701        0.4021723885022780E-01
     3.487676206416335        0.3955778863987484E-01
     3.496573339595968        0.3890590775281969E-01
     3.505470472775602        0.3826149113262705E-01
     3.514367605955235        0.3762443480666514E-01
     3.523264739134869        0.3699463587651704E-01
     3.532161872314502        0.3637199250834480E-01
     3.541059005494136        0.3575640392320919E-01
     3.549956138673770        0.3514777038735243E-01
     3.558853271853403        0.3454599320244493E-01
     3.567750405033037        0.3395097469580390E-01
     3.576647538212670        0.3336261821058540E-01
     3.585544671392304        0.3278082809595512E-01
     3.594441804571937        0.3220550969724224E-01
     3.603338937751571        0.3163656934607750E-01
     3.612236070931204        0.3107391435052317E-01
     3.621133204110838        0.3051745298519376E-01
     3.630030337290471        0.2996709448137428E-01
     3.638927470470104        0.2942274901713802E-01
     3.647824603649738        0.2888432770746528E-01
     3.656721736829371        0.2835174259436915E-01
     3.665618870009005        0.2782490663702761E-01
     3.674516003188639        0.2730373370192737E-01
     3.683413136368272        0.2678813855302053E-01
     3.692310269547906        0.2627803684189576E-01
     3.701207402727539        0.2577334509796939E-01
     3.710104535907173        0.2527398071869408E-01
     3.719001669086806        0.2477986195979136E-01
     3.727898802266440        0.2429090792550758E-01
     3.736795935446073        0.2380703855889523E-01
     3.745693068625707        0.2332817463212342E-01
     3.754590201805340        0.2285423773681624E-01
     3.763487334984974        0.2238515027442360E-01
     3.772384468164607        0.2192083544662357E-01
     3.781281601344241        0.2146121724575959E-01
     3.790178734523874        0.2100622044531316E-01
     3.799075867703508        0.2055577059041271E-01
     3.807973000883141        0.2010979398838118E-01
     3.816870134062775        0.1966821769932275E-01
     3.825767267242408        0.1923096952674949E-01
     3.834664400422042        0.1879797800824980E-01
     3.843561533601675        0.1836917240619879E-01
     3.852458666781309        0.1794448269851272E-01
     3.861355799960942        0.1752383956944623E-01
     3.870252933140576        0.1710717440043588E-01
     3.879150066320209        0.1669441926098873E-01
     3.888047199499843        0.1628550689961687E-01
     3.896944332679476        0.1588037073481983E-01
     3.905841465859110        0.1547894484611382E-01
     3.914738599038743        0.1508116396510951E-01
     3.923635732218377        0.1468696346663818E-01
     3.932532865398010        0.1429627935992712E-01
     3.941429998577644        0.1390904827982471E-01
     3.950327131757277        0.1352520747807482E-01
     3.959224264936911        0.1314469481464184E-01
     3.968121398116544        0.1276744874908572E-01
     3.977018531296178        0.1239340833198864E-01
     3.985915664475812        0.1202251319643119E-01
     3.994812797655445        0.1165470354952100E-01
     4.003709930835078        0.1128992016397201E-01
     4.012607064014712        0.1092810436973468E-01
     4.021504197194345        0.1056919804574990E-01
     4.030401330373979        0.1021314362553001E-01
     4.039298463553612        0.9859884449225921E-02
     4.048195596733246        0.9509367388378348E-02
     4.057092729912879        0.9161550998843688E-02
     4.065989863092513        0.8816419525872095E-02
     4.074886996272147        0.8473998809214910E-02
     4.083784129451780        0.8134369363829920E-02
     4.092681262631413        0.7797673927976895E-02
     4.101578395811047        0.7464119036588750E-02
     4.110475528990681        0.7133971552949539E-02
     4.119372662170314        0.6807551592447223E-02
     4.128269795349947        0.6485223247953567E-02
     4.137166928529581        0.6167384275678995E-02
     4.146064061709215        0.5854455597974735E-02
     4.154961194888848        0.5546871205964959E-02
     4.163858328068481        0.5245068826829560E-02
     4.172755461248115        0.4949481559226285E-02
     4.181652594427749        0.4660530567115686E-02
     4.190549727607382        0.4378618846310157E-02
     4.199446860787016        0.4104126029472728E-02
     4.208343993966649        0.3837404166043060E-02
     4.217241127146282        0.3578774397577901E-02
     4.226138260325916        0.3328524441869392E-02
     4.235035393505550        0.3086906797807632E-02
     4.243932526685184        0.2854137585125045E-02
     4.252829659864816        0.2630395937405946E-02
     4.261726793044450        0.2415823872063407E-02
     4.270623926224084        0.2210526566690249E-02
     4.279521059403717        0.2014572976810841E-02
     4.288418192583350        0.1827996735248858E-02
     4.297315325762984        0.1650797277793133E-02
     4.306212458942618        0.1482941143282085E-02
     4.315109592122251        0.1324363398234974E-02
     4.324006725301885        0.1174969136116010E-02
     4.332903858481518        0.1034634998176315E-02
     4.341800991661152        0.9032106547066102E-03
     4.350698124840785        0.7805201689587208E-03
     4.359595258020419        0.6663631341382071E-03
     4.368492391200053        0.5605154127285169E-03
     4.377389524379685        0.4627291863428633E-03
     4.386286657559319        0.3727317710471096E-03
     4.395183790738953        0.2902220802892307E-03
     4.404080923918587        0.2148621764185272E-03
     4.412978057098219        0.1462571473081437E-03
     4.421875190277853        0.8390192008954746E-04
     4.430772323457487        0.2698803318604284E-04
     4.439669456637120         0.000000000000000    
  0  6  1  0  1.000000   #orbital l, n, z, is_polarized, population
 500    0.2262586393159060E-01     11.29030610186371     # npts, delta, cutoff
     0.000000000000000        0.6141017374822125E-01
    0.2262586393159060E-01    0.6158368594742357E-01
    0.4525172786318119E-01    0.6210602573825018E-01
    0.6787759179477179E-01    0.6297340816754583E-01
    0.9050345572636238E-01    0.6418108521226679E-01
    0.1131293196579530        0.6572246541749152E-01
    0.1357551835895436        0.6758916734062681E-01
    0.1583810475211342        0.6977108559168088E-01
    0.1810069114527248        0.7225646781742644E-01
    0.2036327753843154        0.7503200104811504E-01