<preamble>

<basis_specs>
===============================================================================
Cu                   Z=  29    Mass=  63.546        Charge= 0.17977+309
Lmxo=2 Lmxkb= 2    BasisType=split      Semic=T
L=0  Nsemic=1  Cnfigmx=4
          i=1  nzeta=1  polorb=0  (3s)  (semicore shell)
            splnorm:   0.15000    
               vcte:    40.000    
               rinn:    2.0300    
               qcoe:    0.0000    
               qyuk:    0.0000    
               qwid:   0.10000E-01
                rcs:    2.2533    
            lambdas:    1.0000    
          i=2  nzeta=2  polorb=0  (4s)  (to be polarized non-perturbatively)
            splnorm:   0.15000    
               vcte:    40.000    
               rinn:    5.9893    
               qcoe:    0.0000    
               qyuk:    0.0000    
               qwid:   0.10000E-01
                rcs:    6.6547      4.6491    
            lambdas:    1.0000      1.0000    
L=1  Nsemic=1  Cnfigmx=4
          i=1  nzeta=1  polorb=0  (3p)  (semicore shell)
            splnorm:   0.15000    
               vcte:    40.000    
               rinn:    2.2626    
               qcoe:    0.0000    
               qyuk:    0.0000    
               qwid:   0.10000E-01
                rcs:    2.5114    
            lambdas:    1.0000    
          i=2  nzeta=1  polorb=0  (4p)  (non-perturbative polarization shell)
            splnorm:   0.15000    
               vcte:    40.000    
               rinn:    5.9953    
               qcoe:    0.0000    
               qyuk:    0.0000    
               qwid:   0.10000E-01
                rcs:    6.6547    
            lambdas:    1.0000    
L=2  Nsemic=0  Cnfigmx=3
          i=1  nzeta=2  polorb=0  (3d)
            splnorm:   0.15000    
               vcte:    40.000    
               rinn:    3.9877    
               qcoe:    0.0000    
               qyuk:    0.0000    
               qwid:   0.10000E-01
                rcs:    4.4308      2.5856    
            lambdas:    1.0000      1.0000    
-------------------------------------------------------------------------------
L=0  Nkbl=2  erefs: 0.17977+309 0.17977+309
L=1  Nkbl=2  erefs: 0.17977+309 0.17977+309
L=2  Nkbl=1  erefs: 0.17977+309
===============================================================================
</basis_specs>

<pseudopotential_header>
 Cu pw nrl pcec
 ONCVPSP-3.2018-03-09Hamann's oncvpsp                        
 3s 2.00  r= 1.26/3p 6.00  r= 1.46/3d10.00  r= 1.76/                    3s:3p:3d:4s:
</pseudopotential_header>
</preamble>
Cu                            # Symbol
Cu                            # Label
   29                         # Atomic number
     19.0000000000                             # Valence charge
     63.5460000000        # Mass 
     464.640355016        # Self energy 
   2   7                      # Lmax for basis, no. of nl orbitals 
   2   6                      # Lmax for projectors, no. of nl KB projectors
# PAOs:__________________________
  0  3  1  0  2.000000   #orbital l, n, z, is_polarized, population
 500    0.4515657972076255E-02     2.253313328066051     # npts, delta, cutoff
     0.000000000000000         3.155674462003631    
    0.4515657972076255E-02     3.155497907214304    
    0.9031315944152509E-02     3.155267146410487    
    0.1354697391622876E-01     3.154882715503482    
    0.1806263188830502E-01     3.154344593468957    
    0.2257828986038127E-01     3.153652817252670    
    0.2709394783245753E-01     3.152807444867328    
    0.3160960580453379E-01     3.151808550102258    
    0.3612526377661004E-01     3.150656221180949    
    0.4064092174868629E-01     3.149350560292698    
    0.4515657972076255E-01     3.147891683383814    
    0.4967223769283880E-01     3.146279720040976    
    0.5418789566491505E-01     3.144514813411088    
    0.5870355363699131E-01     3.142597120136458    
    0.6321921160906757E-01     3.140526810296415    
    0.6773486958114382E-01     3.138304067351404    
    0.7225052755322008E-01     3.135929088087793    
    0.7676618552529633E-01     3.133402082562668    
    0.8128184349737258E-01     3.130723274048326    
    0.8579750146944884E-01     3.127892898976661    
    0.9031315944152510E-01     3.124911206883577    
    0.9482881741360134E-01     3.121778460353759    
    0.9934447538567760E-01     3.118494934966286    
    0.1038601333577539         3.115060919241393    
    0.1083757913298301         3.111476714588943    
    0.1128914493019064         3.107742635259062    
    0.1174071072739826         3.103859008295371    
    0.1219227652460589         3.099826173491399    
    0.1264384232181351         3.095644483350600    
    0.1309540811902114         3.091314303050525    
    0.1354697391622876         3.086836010411605    
    0.1399853971343639         3.082209995871065    
    0.1445010551064402         3.077436662462404    
    0.1490167130785164         3.072516425800947    
    0.1535323710505927         3.067449714075894    
    0.1580480290226689         3.062236968049316    
    0.1625636869947452         3.056878641062476    
    0.1670793449668214         3.051375199049926    
    0.1715950029388977         3.045727120561684    
    0.1761106609109739         3.039934896793874    
    0.1806263188830502         3.033999031628126    
    0.1851419768551265         3.027920041680032    
    0.1896576348272027         3.021698456356892    
    0.1941732927992789         3.015334817924991    
    0.1986889507713552         3.008829681586561    
    0.2032046087434315         3.002183615566624    
    0.2077202667155077         2.995397201209769    
    0.2122359246875840         2.988471033086974    
    0.2167515826596602         2.981405719112490    
    0.2212672406317365         2.974201880670782    
    0.2257828986038127         2.966860152753476    
    0.2302985565758890         2.959381184106194    
    0.2348142145479652         2.951765637385201    
    0.2393298725200415         2.944014189323594    
    0.2438455304921178         2.936127530906907    
    0.2483611884641940         2.928106367557774    
    0.2528768464362703         2.919951419329426    
    0.2573925044083465         2.911663421107583    
    0.2619081623804227         2.903243122820403    
    0.2664238203524990         2.894691289656043    
    0.2709394783245753         2.886008702287310    
    0.2754551362966515         2.877196157102936    
    0.2799707942687278         2.868254466444867    
    0.2844864522408040         2.859184458851002    
    0.2890021102128803         2.849986979302724    
    0.2935177681849566         2.840662889476551    
    0.2980334261570328         2.831213067999201    
    0.3025490841291091         2.821638410705352    
    0.3070647421011853         2.811939830897287    
    0.3115804000732616         2.802118259605644    
    0.3160960580453379         2.792174645850461    
    0.3206117160174141         2.782109956901624    
    0.3251273739894903         2.771925178537900    
    0.3296430319615666         2.761621315303583    
    0.3341586899336428         2.751199390761930    
    0.3386743479057191         2.740660447744403    
    0.3431900058777954         2.730005548594781    
    0.3477056638498716         2.719235775407232    
    0.3522213218219479         2.708352230257343    
    0.3567369797940241         2.697356035425169    
    0.3612526377661004         2.686248333609366    
    0.3657682957381767         2.675030288131389    
    0.3702839537102529         2.663703083128858    
    0.3747996116823292         2.652267923737108    
    0.3793152696544054         2.640726036258001    
    0.3838309276264816         2.629078668315068    
    0.3883465855985579         2.617327088994073    
    0.3928622435706342         2.605472588968116    
    0.3973779015427104         2.593516480606380    
    0.4018935595147867         2.581460098065720    
    0.4064092174868629         2.569304797364225    
    0.4109248754589392         2.557051956435997    
    0.4154405334310154         2.544702975166389    
    0.4199561914030917         2.532259275406940    
    0.4244718493751680         2.519722300969381    
    0.4289875073472442         2.507093517598011    
    0.4335031653193204         2.494374412919862    
    0.4380188232913967         2.481566496372081    
    0.4425344812634729         2.468671299949849    
    0.4470501392355492         2.455690381061016    
    0.4515657972076255         2.442625308286596    
    0.4560814551797017         2.429477677089419    
    0.4605971131517780         2.416249104039779    
    0.4651127711238542         2.402941226578177    
    0.4696284290959305         2.389555702771456    
    0.4741440870680068         2.376094211043382    
    0.4786597450400830         2.362558449879588    
    0.4831754030121593         2.348950137506843    
    0.4876910609842355         2.335271011546608    
    0.4922067189563117         2.321522828643016    
    0.4967223769283880         2.307707364065311    
    0.5012380349004643         2.293826411285020    
    0.5057536928725406         2.279881781528005    
    0.5102693508446168         2.265875303301760    
    0.5147850088166931         2.251808821898253    
    0.5193006667887693         2.237684198872740    
    0.5238163247608455         2.223503311499013    
    0.5283319827329218         2.209268052201583    
    0.5328476407049980         2.194980327965367    
    0.5373632986770743         2.180642059723497    
    0.5418789566491505         2.166255181723912    
    0.5463946146212268         2.151821640875464    
    0.5509102725933031         2.137343396074271    
    0.5554259305653794         2.122822417511138    
    0.5599415885374556         2.108260685960901    
    0.5644572465095319         2.093660192054555    
    0.5689729044816081         2.079022935535132    
    0.5734885624536844         2.064350924498234    
    0.5780042204257606         2.049646174618280    
    0.5825198783978368         2.034910708361440    
    0.5870355363699131         2.020146554186341    
    0.5915511943419893         2.005355745733609    
    0.5960668523140656         1.990540321005355    
    0.6005825102861418         1.975702321535727    
    0.6050981682582182         1.960843791553668    
    0.6096138262302944         1.945966777139027    
    0.6141294842023707         1.931073325373194    
    0.6186451421744469         1.916165483485435    
    0.6231608001465232         1.901245297996092    
    0.6276764581185994         1.886314813857841    
    0.6321921160906757         1.871376073596187    
    0.6367077740627519         1.856431116450366    
    0.6412234320348281         1.841481977515823    
    0.6457390900069044         1.826530686889442    
    0.6502547479789806         1.811579268818660    
    0.6547704059510570         1.796629740855589    
    0.6592860639231332         1.781684113017312    
    0.6638017218952095         1.766744386953363    
    0.6683173798672857         1.751812555121557    
    0.6728330378393620         1.736890599973138    
    0.6773486958114382         1.721980493148316    
    0.6818643537835145         1.707084194683145    
    0.6863800117555907         1.692203652228724    
    0.6908956697276670         1.677340800283624    
    0.6954113276997432         1.662497559440426    
    0.6999269856718194         1.647675835647221    
    0.7044426436438957         1.632877519484879    
    0.7089583016159720         1.618104485460830    
    0.7134739595880483         1.603358591320099    
    0.7179896175601245         1.588641677374257    
    0.7225052755322008         1.573955565848910    
    0.7270209335042770         1.559302060250316    
    0.7315365914763533         1.544682944751660    
    0.7360522494484295         1.530099983599464    
    0.7405679074205058         1.515554920540571    
    0.7450835653925820         1.501049478270084    
    0.7495992233646583         1.486585357900600    
    0.7541148813367345         1.472164238453000    
    0.7586305393088107         1.457787776369059    
    0.7631461972808871         1.443457605046033    
    0.7676618552529633         1.429175334393368    
    0.7721775132250396         1.414942550411591    
    0.7766931711971158         1.400760814793465    
    0.7812088291691921         1.386631664547327    
    0.7857244871412683         1.372556611642606    
    0.7902401451133446         1.358537142677371    
    0.7947558030854208         1.344574718567781    
    0.7992714610574971         1.330670774259223    
    0.8037871190295733         1.316826718458899    
    0.8083027770016497         1.303043933389595    
    0.8128184349737259         1.289323774564291    
    0.8173340929458021         1.275667570581265    
    0.8218497509178784         1.262076622939286    
    0.8263654088899546         1.248552205872491    
    0.8308810668620309         1.235095566204443    
    0.8353967248341071         1.221707923220922    
    0.8399123828061834         1.208390468560904    
    0.8444280407782596         1.195144366125191    
    0.8489436987503359         1.181970752002120    
    0.8534593567224121         1.168870734409775    
    0.8579750146944884         1.155845393654067    
    0.8624906726665647         1.142895782102085    
    0.8670063306386409         1.130022924170071    
    0.8715219886107172         1.117227816325348    
    0.8760376465827934         1.104511427101581    
    0.8805533045548697         1.091874697126654    
    0.8850689625269459         1.079318539162547    
    0.8895846204990222         1.066843838156484    
    0.8941002784710984         1.054451451302724    
    0.8986159364431747         1.042142208114291    
    0.9031315944152509         1.029916910504000    
    0.9076472523873272         1.017776332874098    
    0.9121629103594034         1.005721222213886    
    0.9166785683314798        0.9937522982046777    
    0.9211942263035560        0.9818702533314554    
    0.9257098842756322        0.9700757530006300    
    0.9302255422477085        0.9583694356633014    
    0.9347412002197847        0.9467519129434353    
    0.9392568581918610        0.9352237697704195    
    0.9437725161639372        0.9237855645154435    
    0.9482881741360135        0.9124378291312040    
    0.9528038321080897        0.9011810692944479    
    0.9573194900801660        0.8900157645508872    
    0.9618351480522422        0.8789423684620621    
    0.9663508060243186        0.8679613087537370    
    0.9708664639963948        0.8570729874654541    
    0.9753821219684711        0.8462777811009081    
    0.9798977799405473        0.8355760407788175    
    0.9844134379126235        0.8249680923840060    
    0.9889290958846998        0.8144542367184389    
    0.9934447538567760        0.8040347496520168    
    0.9979604118288523        0.7937098822728937    
     1.002476069800929        0.7834798610371944    
     1.006991727773005        0.7733448879180003    
     1.011507385745081        0.7633051405534929    
     1.016023043717157        0.7533607723942083    
     1.020538701689234        0.7435119128493614    
     1.025054359661310        0.7337586674322425    
     1.029570017633386        0.7241011179047074    
     1.034085675605462        0.7145393224208230    
     1.038601333577539        0.7050733156697516    
     1.043116991549615        0.6957031090179734    
     1.047632649521691        0.6864286906510148    
     1.052148307493767        0.6772500257148005    
     1.056663965465844        0.6681670564568591    
     1.061179623437920        0.6591797023675563    
     1.065695281409996        0.6502878603215982    
     1.070210939382072        0.6414914047200629    
     1.074726597354149        0.6327901876331994    
     1.079242255326225        0.6241840389443021    
     1.083757913298301        0.6156727664949421    
     1.088273571270377        0.6072561562318698    
     1.092789229242454        0.5989339723559154    
     1.097304887214530        0.5907059574731945    
     1.101820545186606        0.5825718327489995    
     1.106336203158682        0.5745312980646664    
     1.110851861130759        0.5665840321778207    
     1.115367519102835        0.5587296928863058    
     1.119883177074911        0.5509679171961758    
     1.124398835046987        0.5432983214940865    
     1.128914493019064        0.5357205017244471    
     1.133430150991140        0.5282340335716499    
     1.137945808963216        0.5208384726477442    
     1.142461466935292        0.5135333546858563    
     1.146977124907369        0.5063181957396928    
     1.151492782879445        0.4991924923894186    
     1.156008440851521        0.4921557219542244    
     1.160524098823597        0.4852073427118321    
     1.165039756795674        0.4783467941252413    
     1.169555414767750        0.4715734970769299    
     1.174071072739826        0.4648868541107640    
     1.178586730711902        0.4582862496818063    
     1.183102388683979        0.4517710504142275    
     1.187618046656055        0.4453406053674890    
     1.192133704628131        0.4389942463109202    
     1.196649362600207        0.4327312880068554    
     1.201165020572284        0.4265510285023750    
     1.205680678544360        0.4204527494297773    
     1.210196336516436        0.4144357163157940    
     1.214711994488513        0.4084991788995871    
     1.219227652460589        0.4026423714577937    
     1.223743310432665        0.3968645130551046    
     1.228258968404741        0.3911648079150303    
     1.232774626376818        0.3855424460184980    
     1.237290284348894        0.3799966036990325    
     1.241805942320970        0.3745264440905703    
     1.246321600293046        0.3691311162345204    
     1.250837258265123        0.3638097547763330    
     1.255352916237199        0.3585614801782627    
     1.259868574209275        0.3533854015854357    
     1.264384232181351        0.3482806206817735    
     1.268899890153428        0.3432462357667322    
     1.273415548125504        0.3382813459208577    
     1.277931206097580        0.3333850548318627    
     1.282446864069656        0.3285564741782045    
     1.286962522041733        0.3237947259170934    
     1.291478180013809        0.3190989420760379    
     1.295993837985885        0.3144682641518234    
     1.300509495957961        0.3099018419705472    
     1.305025153930038        0.3053988336414054    
     1.309540811902114        0.3009584058048119    
     1.314056469874190        0.2965797337959170    
     1.318572127846266        0.2922620017536959    
     1.323087785818343        0.2880044025056384    
     1.327603443790419        0.2838061375378557    
     1.332119101762495        0.2796664169727158    
     1.336634759734571        0.2755844595431193    
     1.341150417706648        0.2715594925637441    
     1.345666075678724        0.2675907518994519    
     1.350181733650800        0.2636774819309721    
     1.354697391622876        0.2598189355180160    
     1.359213049594953        0.2560143739503152    
     1.363728707567029        0.2522630666797062    
     1.368244365539105        0.2485642915531440    
     1.372760023511181        0.2449173347942553    
     1.377275681483258        0.2413214908960054    
     1.381791339455334        0.2377760625704076    
     1.386306997427410        0.2342803606969193    
     1.390822655399486        0.2308337042692552    
     1.395338313371563        0.2274354203407158    
     1.399853971343639        0.2240848439681352    
     1.404369629315715        0.2207813181545309    
     1.408885287287791        0.2175241937905545    
     1.413400945259868        0.2143128295948210    
     1.417916603231944        0.2111465920532067    
     1.422432261204020        0.2080248553571859    
     1.426947919176097        0.2049470013412915    
     1.431463577148173        0.2019124194197592    
     1.435979235120249        0.1989205065224375    
     1.440494893092325        0.1959706670300195    
     1.445010551064402        0.1930623127086670    
     1.449526209036478        0.1901948626440822    
     1.454041867008554        0.1873677431750873    
     1.458557524980630        0.1845803878267704    
     1.463073182952707        0.1818322372432429    
     1.467588840924783        0.1791227391200654    
     1.472104498896859        0.1764513481363925    
     1.476620156868935        0.1738175258868763    
     1.481135814841012        0.1712207408133732    
     1.485651472813088        0.1686604681365030    
     1.490167130785164        0.1661361897870918    
     1.494682788757240        0.1636473943375454    
     1.499198446729317        0.1611935769331826    
     1.503714104701393        0.1587742392235689    
     1.508229762673469        0.1563888892938780    
     1.512745420645545        0.1540370415963193    
     1.517261078617621        0.1517182168816532    
     1.521776736589698        0.1494319421308309    
     1.526292394561774        0.1471777504867834    
     1.530808052533850        0.1449551811863794    
     1.535323710505927        0.1427637794925862    
     1.539839368478003        0.1406030966268492    
     1.544355026450079        0.1384726897017174    
     1.548870684422155        0.1363721216537302    
     1.553386342394232        0.1343009611765898    
     1.557902000366308        0.1322587826546344    
     1.562417658338384        0.1302451660966362    
     1.566933316310460        0.1282596970699268    
     1.571448974282537        0.1263019666348844    
     1.575964632254613        0.1243715712797818    
     1.580480290226689        0.1224681128560164    
     1.584995948198765        0.1205911985137349    
     1.589511606170842        0.1187404406378615    
     1.594027264142918        0.1169154567845450    
     1.598542922114994        0.1151158696180328    
     1.603058580087070        0.1133413068479818    
     1.607574238059147        0.1115914011672168    
     1.612089896031223        0.1098657901899441    
     1.616605554003299        0.1081641163904267    
     1.621121211975376        0.1064860270421324    
     1.625636869947452        0.1048311741573577    
     1.630152527919528        0.1031992144273334    
     1.634668185891604        0.1015898091628219    
     1.639183843863681        0.1000026242352082    
     1.643699501835757        0.9843733001808619E-01
     1.648215159807833        0.9689360132935108E-01
     1.652730817779909        0.9537111737379936E-01
     1.657246475751986        0.9386956168623274E-01
     1.661762133724062        0.9238862207508064E-01
     1.666277791696138        0.9092799056653594E-01
     1.670793449668214        0.8948736334920537E-01
     1.675309107640291        0.8806644071928284E-01
     1.679824765612367        0.8666492702623986E-01
     1.684340423584443        0.8528253061903832E-01
     1.688856081556519        0.8391896379286672E-01
     1.693371739528595        0.8257394273639633E-01
     1.697887397500672        0.8124718747956181E-01
     1.702403055472748        0.7993842184186521E-01
     1.706918713444824        0.7864737338119902E-01
     1.711434371416900        0.7737377334319429E-01
     1.715950029388977        0.7611735661108776E-01
     1.720465687361053        0.7487786165610848E-01
     1.724981345333129        0.7365503048838370E-01
     1.729497003305206        0.7244860860836254E-01
     1.734012661277282        0.7125834495875220E-01
     1.738528319249358        0.7008399187696915E-01
     1.743043977221434        0.6892530504810354E-01
     1.747559635193511        0.6778204345838891E-01
     1.752075293165587        0.6665396934918184E-01
     1.756590951137663        0.6554084817144661E-01
     1.761106609109739        0.6444244854073787E-01
     1.765622267081816        0.6335854219268536E-01
     1.770137925053892        0.6228890393897380E-01
     1.774653583025968        0.6123331162381487E-01
     1.779169240998044        0.6019154608091235E-01
     1.783684898970121        0.5916339109091159E-01
     1.788200556942197        0.5814863333933212E-01
     1.792716214914273        0.5714706237498075E-01
     1.797231872886349        0.5615847056884109E-01
     1.801747530858426        0.5518265307343583E-01
     1.806263188830502        0.5421940778265957E-01
     1.810778846802578        0.5326853529207664E-01
     1.815294504774654        0.5232983885968210E-01
     1.819810162746731        0.5140312436711885E-01
     1.824325820718807        0.5048820028134930E-01
     1.828841478690883        0.4958487761677904E-01
     1.833357136662960        0.4869296989782373E-01
     1.837872794635036        0.4781229312192098E-01
     1.842388452607112        0.4694266572297968E-01
     1.846904110579188        0.4608390853526220E-01
     1.851419768551264        0.4523584475769863E-01
     1.855935426523341        0.4439829991862475E-01
     1.860451084495417        0.4357110184094364E-01
     1.864966742467493        0.4275408060770302E-01
     1.869482400439569        0.4194706852808631E-01
     1.873998058411646        0.4114990010381368E-01
     1.878513716383722        0.4036241199594677E-01
     1.883029374355798        0.3958444299209330E-01
     1.887545032327874        0.3881583397400828E-01
     1.892060690299951        0.3805642788558657E-01
     1.896576348272027        0.3730606970124501E-01
     1.901092006244103        0.3656460639468621E-01
     1.905607664216179        0.3583188690804268E-01
     1.910123322188256        0.3510776212139349E-01
     1.914638980160332        0.3439208482265319E-01
     1.919154638132408        0.3368470967782549E-01
     1.923670296104484        0.3298549320161927E-01
     1.928185954076561        0.3229429372842330E-01
     1.932701612048637        0.3161097138363181E-01
     1.937217270020713        0.3093538805532210E-01
     1.941732927992790        0.3026740736627467E-01
     1.946248585964866        0.2960689464633487E-01
     1.950764243936942        0.2895371690511120E-01
     1.955279901909018        0.2830774280500492E-01
     1.959795559881095        0.2766884263456922E-01
     1.964311217853171        0.2703688828218973E-01
     1.968826875825247        0.2641175321008819E-01
     1.973342533797323        0.2579331242863851E-01
     1.977858191769400        0.2518144247099642E-01
     1.982373849741476        0.2457602136803574E-01
     1.986889507713552        0.2397692862358745E-01
     1.991405165685628        0.2338404518998027E-01
     1.995920823657705        0.2279725344387341E-01
     2.000436481629781        0.2221643716238388E-01
     2.004952139601857        0.2164148149949872E-01
     2.009467797573933        0.2107227296277211E-01
     2.013983455546009        0.2050869939030154E-01
     2.018499113518086        0.1995064992797916E-01
     2.023014771490162        0.1939801500701657E-01
     2.027530429462238        0.1885068632173508E-01
     2.032046087434315        0.1830855680762243E-01
     2.036561745406391        0.1777152061964873E-01
     2.041077403378467        0.1723947311084221E-01
     2.045593061350544        0.1671231081251401E-01
     2.050108719322620        0.1618993149427645E-01
     2.054624377294696        0.1567223513232165E-01
     2.059140035266772        0.1515912825930184E-01
     2.063655693238848        0.1465053356536896E-01
     2.068171351210925        0.1414640299633969E-01
     2.072687009183001        0.1364673041592447E-01
     2.077202667155077        0.1315156071128021E-01
     2.081718325127154        0.1266099413483776E-01
     2.086233983099230        0.1217518615758234E-01
     2.090749641071306        0.1169434382306694E-01
     2.095265299043382        0.1121871974735824E-01
     2.099780957015458        0.1074860478140165E-01
     2.104296614987535        0.1028432012488066E-01
     2.108812272959611        0.9826209450919953E-02
     2.113327930931687        0.9374631407871651E-02
     2.117843588903764        0.8929952716946752E-02
     2.122359246875840        0.8492541978692520E-02
     2.126874904847916        0.8062764229119571E-02
     2.131390562819992        0.7640976239275292E-02
     2.135906220792068        0.7227522523090067E-02
     2.140421878764145        0.6822732001842319E-02
     2.144937536736221        0.6426915265463877E-02
     2.149453194708297        0.6040362368214719E-02
     2.153968852680373        0.5663341096911027E-02
     2.158484510652450        0.5296095652498313E-02
     2.163000168624526        0.4938845689335076E-02
     2.167515826596602        0.4591785660440624E-02
     2.172031484568679        0.4255084420685021E-02
     2.176547142540755        0.3928885043110147E-02
     2.181062800512831        0.3613304805927709E-02
     2.185578458484907        0.3308435308892828E-02
     2.190094116456983        0.3014342677178438E-02
     2.194609774429060        0.2731067807819215E-02
     2.199125432401136        0.2458626606939783E-02
     2.203641090373212        0.2197010153090759E-02
     2.208156748345289        0.1946184698981229E-02
     2.212672406317365        0.1706091383005861E-02
     2.217188064289441        0.1476645447879325E-02
     2.221703722261517        0.1257734624297749E-02
     2.226219380233593        0.1049216060637889E-02
     2.230735038205670        0.8509105888543147E-03
     2.235250696177746        0.6625917320974191E-03
     2.239766354149822        0.4839631797412010E-03
     2.244282012121899        0.3146067657060742E-03
     2.248797670093975        0.1538337836589695E-03
     2.253313328066051         0.000000000000000    
  0  4  1  0  1.000000   #orbital l, n, z, is_polarized, population
 500    0.1333613722406845E-01     6.654732474810157     # npts, delta, cutoff
     0.000000000000000         1.412051793642235    
    0.1333613722406845E-01     1.411375695286633    
    0.2667227444813690E-01     1.409482395078155    