<preamble>

<basis_specs>
===============================================================================
F                    Z=   9    Mass=  18.998        Charge= 0.17977+309
Lmxo=2 Lmxkb= 2    BasisType=split      Semic=F
L=0  Nsemic=0  Cnfigmx=2
          i=1  nzeta=2  polorb=0  (2s)
            splnorm:   0.15000    
               vcte:    40.000    
               rinn:    3.0819    
               qcoe:    0.0000    
               qyuk:    0.0000    
               qwid:   0.10000E-01
                rcs:    3.4209      2.1045    
            lambdas:    1.0000      1.0000    
L=1  Nsemic=0  Cnfigmx=2
          i=1  nzeta=2  polorb=1  (2p)  (to be polarized perturbatively)
            splnorm:   0.15000    
               vcte:    40.000    
               rinn:    3.7890    
               qcoe:    0.0000    
               qyuk:    0.0000    
               qwid:   0.10000E-01
                rcs:    4.2058      2.5675    
            lambdas:    1.0000      1.0000    
L=2  Nsemic=0  Cnfigmx=3
          i=1  nzeta=0  polorb=0  (3d)  (perturbative polarization orbital) (from 2p)
-------------------------------------------------------------------------------
L=0  Nkbl=1  erefs: 0.17977+309
L=1  Nkbl=1  erefs: 0.17977+309
L=2  Nkbl=1  erefs: 0.17977+309
===============================================================================
</basis_specs>

<pseudopotential_header>
 F  pw nrl pcec
 ONCVPSP-3.2020-12-02Hamann's oncvpsp                        
 2s 2.00  r= 1.31/2p 5.00  r= 1.46/3d 0.00  r= 1.60/                    2s:2p:
</pseudopotential_header>
</preamble>
F                             # Symbol
F                             # Label
    9                         # Atomic number
     7.00000000000                             # Valence charge
     18.9980000000        # Mass 
     80.1257542850        # Self energy 
   2   5                      # Lmax for basis, no. of nl orbitals 
   2   5                      # Lmax for projectors, no. of nl KB projectors
# PAOs:__________________________
  0  2  1  0  2.000000   #orbital l, n, z, is_polarized, population
 500    0.6855560502688870E-02     3.420924690841746     # npts, delta, cutoff
     0.000000000000000         1.840904677495317    
    0.6855560502688870E-02     1.840852757437652    
    0.1371112100537774E-01     1.840761260970799    
    0.2056668150806661E-01     1.840608692670617    
    0.2742224201075548E-01     1.840394902209931    
    0.3427780251344435E-01     1.840119688768276    
    0.4113336301613322E-01     1.839782796050150    
    0.4798892351882209E-01     1.839383911848813    
    0.5484448402151096E-01     1.838922668240611    
    0.6170004452419983E-01     1.838398641975912    
    0.6855560502688871E-01     1.837811354981134    
    0.7541116552957756E-01     1.837160274949722    
    0.8226672603226644E-01     1.836444816016013    
    0.8912228653495531E-01     1.835664339510807    
    0.9597784703764417E-01     1.834818154799375    
    0.1028334075403330         1.833905520203423    
    0.1096889680430219         1.832925644008754    
    0.1165445285457108         1.831877685560690    
    0.1234000890483997         1.830760756449233    
    0.1302556495510885         1.829573921785994    
    0.1371112100537774         1.828316201574812    
    0.1439667705564663         1.826986572177921    
    0.1508223310591551         1.825583967879300    
    0.1576778915618440         1.824107282546718    
    0.1645334520645329         1.822555371393718    
    0.1713890125672217         1.820927052842540    
    0.1782445730699106         1.819221110488694    
    0.1851001335725995         1.817436295167542    
    0.1919556940752883         1.815571327122955    
    0.1988112545779772         1.813624898277660    
    0.2056668150806661         1.811595674604523    
    0.2125223755833550         1.809482298597617    
    0.2193779360860438         1.807283391841382    
    0.2262334965887327         1.804997557675841    
    0.2330890570914216         1.802623383955246    
    0.2399446175941105         1.800159445897114    
    0.2468001780967993         1.797604309018064    
    0.2536557385994882         1.794956532152423    
    0.2605112991021771         1.792214670548973    
    0.2673668596048659         1.789377279040826    
    0.2742224201075548         1.786442915282800    
    0.2810779806102436         1.783410143050308    
    0.2879335411129325         1.780277535593161    
    0.2947891016156214         1.777043679037385    
    0.3016446621183103         1.773707175827582    
    0.3085002226209991         1.770266648202027    
    0.3153557831236880         1.766720741692321    
    0.3222113436263769         1.763068128639011    
    0.3290669041290658         1.759307511714305    
    0.3359224646317546         1.755437627442734    
    0.3427780251344435         1.751457249710330    
    0.3496335856371324         1.747365193252727    
    0.3564891461398212         1.743160317112392    
    0.3633447066425101         1.738841528055090    
    0.3702002671451990         1.734407783935636    
    0.3770558276478879         1.729858097002909    
    0.3839113881505767         1.725191537134184    
    0.3907669486532656         1.720407234988859    
    0.3976225091559544         1.715504385071828    
    0.4044780696586433         1.710482248696857    
    0.4113336301613322         1.705340156840598    
    0.4181891906640210         1.700077512878098    
    0.4250447511667099         1.694693795191000    
    0.4319003116693988         1.689188559639978    
    0.4387558721720877         1.683561441893361    
    0.4456114326747765         1.677812159604316    
    0.4524669931774654         1.671940514429509    
    0.4593225536801543         1.665946393882604    
    0.4661781141828432         1.659829773016591    
    0.4730336746855320         1.653590715929459    
    0.4798892351882209         1.647229377088424    
    0.4867447956909098         1.640746002468473    
    0.4936003561935987         1.634140930501750    
    0.5004559166962875         1.627414592834905    
    0.5073114771989764         1.620567514892301    
    0.5141670377016653         1.613600316243631    
    0.5210225982043541         1.606513710775241    
    0.5278781587070430         1.599308506665178    
    0.5347337192097319         1.591985606162672    
    0.5415892797124208         1.584546005173523    
    0.5484448402151096         1.576990792653518    
    0.5553004007177984         1.569321149812739    
    0.5621559612204873         1.561538349134263    
    0.5690115217231762         1.553643753211442    
    0.5758670822258650         1.545638813408556    
    0.5827226427285539         1.537525068350255    
    0.5895782032312428         1.529304142245766    
    0.5964337637339316         1.520977743054394    
    0.6032893242366205         1.512547660499330    
    0.6101448847393094         1.504015763937338    
    0.6170004452419983         1.495384000151316    
    0.6238560057446871         1.486654390786508    
    0.6307115662473760         1.477829029986314    
    0.6375671267500649         1.468910081738332    
    0.6444226872527538         1.459899777138083    
    0.6512782477554426         1.450800411571309    
    0.6581338082581315         1.441614341813809    
    0.6649893687608204         1.432343983058421    
    0.6718449292635092         1.422991805878747    
    0.6787004897661981         1.413560333139290    
    0.6855560502688870         1.404052136861529    
    0.6924116107715759         1.394469835055444    
    0.6992671712742647         1.384816088525802    
    0.7061227317769536         1.375093597662352    
    0.7129782922796425         1.365305099222828    
    0.7198338527823314         1.355453363117415    
    0.7266894132850202         1.345541189202992    
    0.7335449737877091         1.335571404095137    
    0.7404005342903980         1.325546858005524    
    0.7472560947930869         1.315470421611869    
    0.7541116552957757         1.305344982967245    
    0.7609672157984646         1.295173444455042    
    0.7678227763011534         1.284958719795411    
    0.7746783368038422         1.274703731108563    
    0.7815338973065311         1.264411406039732    
    0.7883894578092200         1.254084674950134    
    0.7952450183119089         1.243726468177740    
    0.8021005788145977         1.233339713371124    
    0.8089561393172866         1.222927332899158    
    0.8158116998199755         1.212492241338794    
    0.8226672603226644         1.202037343042663    
    0.8295228208253532         1.191565529787726    
    0.8363783813280421         1.181079678505742    
    0.8432339418307310         1.170582649095816    
    0.8500895023334198         1.160077282318893    
    0.8569450628361087         1.149566397773593    
    0.8638006233387976         1.139052791952423    
    0.8706561838414865         1.128539236376995    
    0.8775117443441753         1.118028475810585    
    0.8843673048468642         1.107523226545994    
    0.8912228653495531         1.097026174766460    
    0.8980784258522420         1.086539974977065    
    0.9049339863549308         1.076067248503938    
    0.9117895468576197         1.065610582058300    
    0.9186451073603086         1.055172526362329    
    0.9255006678629975         1.044755594833686    
    0.9323562283656863         1.034362262325473    
    0.9392117888683752         1.023994963918377    
    0.9460673493710641         1.013656093761740    
    0.9529229098737529         1.003348003960348    
    0.9597784703764418        0.9930730035037802    
    0.9666340308791307        0.9828333572352765    
    0.9734895913818196        0.9726312848571916    
    0.9803451518845084        0.9624689599702830    
    0.9872007123871973        0.9523485091442375    
    0.9940562728898861        0.9422720110170568    
     1.000911833392575        0.9322414954211541    
     1.007767393895264        0.9222589425342476    
     1.014622954397953        0.9123262820533998    
     1.021478514900642        0.9024453923908311    
     1.028334075403331        0.8926180998904082    
     1.035189635906019        0.8828461780640220    
     1.042045196408708        0.8731313468473353    
     1.048900756911397        0.8634752718747120    
     1.055756317414086        0.8538795637734145    
     1.062611877916775        0.8443457774774716    
     1.069467438419464        0.8348754115618849    
     1.076322998922153        0.8254699075981481    
     1.083178559424842        0.8161306495323093    
     1.090034119927530        0.8068589630870595    
     1.096889680430219        0.7976561151895833    
     1.103745240932908        0.7885233134271288    
     1.110600801435597        0.7794617055324327    
     1.117456361938286        0.7704723789013639    
     1.124311922440975        0.7615563601452594    
     1.131167482943664        0.7527146146805943    
     1.138023043446352        0.7439480463587101    
     1.144878603949041        0.7352574971384361    
     1.151734164451730        0.7266437468044529    
     1.158589724954419        0.7181075127343182    
     1.165445285457108        0.7096494497170317    
     1.172300845959797        0.7012701498260157    
     1.179156406462486        0.6929701423490476    
     1.186011966965175        0.6847498930810938    
     1.192867527467863        0.6766098037979399    
     1.199723087970552        0.6685502145731157    
     1.206578648473241        0.6605714031308422    
     1.213434208975930        0.6526735850697577    
     1.220289769478619        0.6448569141864307    
     1.227145329981308        0.6371214828719336    
     1.234000890483997        0.6294673225829167    
     1.240856450986686        0.6218944043883371    
     1.247712011489374        0.6144026395927233    
     1.254567571992063        0.6069918804365458    
     1.261423132494752        0.5996619208739917    
     1.268278692997441        0.5924124974087379    
     1.275134253500130        0.5852432899050071    
     1.281989814002819        0.5781539229594295    
     1.288845374505508        0.5711439676184826    
     1.295700935008196        0.5642129411062814    
     1.302556495510885        0.5573603057055834    
     1.309412056013574        0.5505854725875272    
     1.316267616516263        0.5438878126791008    
     1.323123177018952        0.5372666697285257    
     1.329978737521641        0.5307213735529448    
     1.336834298024330        0.5242512509483003    
     1.343689858527018        0.5178556289568446    
     1.350545419029707        0.5115338327767137    
     1.357400979532396        0.5052851843172331    
     1.364256540035085        0.4991090032893652    
     1.371112100537774        0.4930046081878335    
     1.377967661040463        0.4869713166100452    
     1.384823221543152        0.4810084455879333    
     1.391678782045841        0.4751153119594775    
     1.398534342548529        0.4692912327249086    
     1.405389903051218        0.4635355253825389    
     1.412245463553907        0.4578475082469453    
     1.419101024056596        0.4522265007503105    
     1.425956584559285        0.4466718237276321    
     1.432812145061974        0.4411827996865013    
     1.439667705564663        0.4357587530621077    
     1.446523266067351        0.4303990104580989    
     1.453378826570040        0.4251029008739209    
     1.460234387072729        0.4198697559192133    
     1.467089947575418        0.4146989100158114    
     1.473945508078107        0.4095897005879164    
     1.480801068580796        0.4045414682409363    
     1.487656629083485        0.3995535569294758    
     1.494512189586174        0.3946253141149540    
     1.501367750088862        0.3897560909133381    
     1.508223310591551        0.3849452422334080    
     1.515078871094240        0.3801921269059598    
     1.521934431596929        0.3754961078043619    
     1.528789992099618        0.3708565519568509    
     1.535645552602307        0.3662728306509304    
     1.542501113104996        0.3617443195302358    
     1.549356673607684        0.3572703986841990    
     1.556212234110373        0.3528504527308348    
     1.563067794613062        0.3484838708929753    
     1.569923355115751        0.3441700470682370    
     1.576778915618440        0.3399083798930183    
     1.583634476121129        0.3356982728007957    
     1.590490036623818        0.3315391340749921    
     1.597345597126507        0.3274303768966534    
     1.604201157629195        0.3233714193872030    
     1.611056718131884        0.3193616846464736    
     1.617912278634573        0.3154006007862714    
     1.624767839137262        0.3114876009596624    
     1.631623399639951        0.3076221233861976    
     1.638478960142640        0.3038036113732742    
     1.645334520645329        0.3000315133338095    
     1.652190081148018        0.2963052828004260    
     1.659045641650706        0.2926243784363002    
     1.665901202153395        0.2889882640428587    
     1.672756762656084        0.2853964085644667    
     1.679612323158773        0.2818482860902683    
     1.686467883661462        0.2783433758533236    
     1.693323444164151        0.2748811622271750    
     1.700179004666840        0.2714611347199894    
     1.707034565169529        0.2680827879663876    
     1.713890125672217        0.2647456217171014    
     1.720745686174906        0.2614491408265550    
     1.727601246677595        0.2581928552385073    
     1.734456807180284        0.2549762799698359    
     1.741312367682973        0.2517989350925904    
     1.748167928185662        0.2486603457143945    
     1.755023488688351        0.2455600419573029    
     1.761879049191039        0.2424975589351973    
     1.768734609693728        0.2394724367298086    
     1.775590170196417        0.2364842203654518    
     1.782445730699106        0.2335324597825434    
     1.789301291201795        0.2306167098099912    
     1.796156851704484        0.2277365301365090    
     1.803012412207173        0.2248914852809492    
     1.809867972709862        0.2220811445616923    
     1.816723533212550        0.2193050820651839    
     1.823579093715239        0.2165628766136546    
     1.830434654217928        0.2138541117320987    
     1.837290214720617        0.2111783756145577    
     1.844145775223306        0.2085352610897604    
     1.851001335725995        0.2059243655861772    
     1.857856896228684        0.2033452910965285    
     1.864712456731373        0.2007976441417944    
     1.871568017234061        0.1982810357347750    
     1.878423577736750        0.1957950813432330    
     1.885279138239439        0.1933394008526695    
     1.892134698742128        0.1909136185287676    
     1.898990259244817        0.1885173629795274    
     1.905845819747506        0.1861502671171457    
     1.912701380250195        0.1838119681196602    
     1.919556940752884        0.1815021073923933    
     1.926412501255572        0.1792203305292286    
     1.933268061758261        0.1769662872737441    
     1.940123622260950        0.1747396314802269    
     1.946979182763639        0.1725400210746034    
     1.953834743266328        0.1703671180152973    
     1.960690303769017        0.1682205882540494    
     1.967545864271706        0.1661001016967167    
     1.974401424774395        0.1640053321640700    
     1.981256985277083        0.1619359573526123    
     1.988112545779772        0.1598916587954353    
     1.994968106282461        0.1578721218231341    
     2.001823666785150        0.1558770355247920    
     2.008679227287839        0.1539060927090566    
     2.015534787790528        0.1519589898653197    
     2.022390348293217        0.1500354271250157    
     2.029245908795906        0.1481351082230506    
     2.036101469298594        0.1462577404593755    
     2.042957029801283        0.1444030346607208    
     2.049812590303972        0.1425707051424905    
     2.056668150806661        0.1407604696708414    
     2.063523711309350        0.1389720494249478    
     2.070379271812039        0.1372051689594633    
     2.077234832314728        0.1354595561671923    
     2.084090392817417        0.1337349422419709    
     2.090945953320105        0.1320310616417759    
     2.097801513822794        0.1303476520520588    
     2.104657074325483        0.1286844543493195    
     2.111512634828172        0.1270412125649200    
     2.118368195330861        0.1254176738491487    
     2.125223755833550        0.1238135884355363    
     2.132079316336239        0.1222287096054326    
     2.138934876838928        0.1206627936528447    
     2.145790437341616        0.1191155998495441    
     2.152645997844305        0.1175868904104442    
     2.159501558346994        0.1160764304592544    
     2.166357118849683        0.1145839879944108    
     2.173212679352372        0.1131093338552881    
     2.180068239855061        0.1116522416886958    
     2.186923800357750        0.1102124879156607    
     2.193779360860439        0.1087898516984971    
     2.200634921363127        0.1073841149081666    
     2.207490481865816        0.1059950620919303    
     2.214346042368505        0.1046224804412924    
     2.221201602871194        0.1032661597602396    
     2.228057163373883        0.1019258924337742    
     2.234912723876572        0.1006014733967431    
     2.241768284379261        0.9929270010296434E-01
     2.248623844881949        0.9799937249464663E-01
     2.255479405384638        0.9672129297210941E-01
     2.262334965887327        0.9545826636379801E-01
     2.269190526390016        0.9421009989659521E-01
     2.276046086892705        0.9297660316642960E-01
     2.282901647395394        0.9175758810917958E-01
     2.289757207898083        0.9055286897187281E-01
     2.296612768400772        0.8936226228418129E-01
     2.303468328903460        0.8818558683020858E-01
     2.310323889406149        0.8702266362057069E-01
     2.317179449908838        0.8587331586477075E-01
     2.324035010411527        0.8473736894386158E-01
     2.330890570914216        0.8361465038340100E-01
     2.337746131416905        0.8250498982669292E-01
     2.344601691919594        0.8140821900831763E-01
     2.351457252422283        0.8032417172794695E-01
     2.358312812924971        0.7925268382444275E-01
     2.365168373427660        0.7819359315023908E-01
     2.372023933930349        0.7714673954600554E-01
     2.378879494433038        0.7611196481558803E-01
     2.385735054935727        0.7508911270122870E-01
     2.392590615438416        0.7407802885906067E-01
     2.399446175941105        0.7307856083487707E-01
     2.406301736443794        0.7209055804017084E-01
     2.413157296946482        0.7111387172844578E-01
     2.420012857449171        0.7014835497179413E-01
     2.426868417951860        0.6919386263774127E-01
     2.433723978454549        0.6825025136635278E-01
     2.440579538957238        0.6731737954760450E-01
     2.447435099459927        0.6639510729901178E-01
     2.454290659962616        0.6548329644351497E-01
     2.461146220465304        0.6458181048762263E-01
     2.468001780967993        0.6369051459980432E-01
     2.474857341470682        0.6280927558913760E-01
     2.481712901973371        0.6193796188420179E-01
     2.488568462476060        0.6107644351221818E-01
     2.495424022978749        0.6022459207843436E-01
     2.502279583481438        0.5938228074575141E-01
     2.509135143984127        0.5854938421458891E-01
     2.515990704486815        0.5772577870298842E-01
     2.522846264989504        0.5691134192695166E-01
     2.529701825492193        0.5610595308101091E-01
     2.536557385994882        0.5530949281903055E-01
     2.543412946497571        0.5452184323523556E-01
     2.550268507000260        0.5374288784546705E-01
     2.557124067502949        0.5297251156866005E-01
     2.563979628005638        0.5221060070854330E-01
     2.570835188508326        0.5145704293555745E-01
     2.577690749011015        0.5071172726898956E-01
     2.584546309513704        0.4997454405932276E-01
     2.591401870016393        0.4924538497079695E-01
     2.598257430519082        0.4852414296417940E-01
     2.605112991021771        0.4781071227974291E-01
     2.611968551524460        0.4710498842044949E-01
     2.618824112027148        0.4640686813533605E-01
     2.625679672529837        0.4571624940310128E-01
     2.632535233032526        0.4503303141589095E-01
     2.639390793535215        0.4435711456327923E-01
     2.646246354037904        0.4368840041644442E-01
     2.653101914540593        0.4302679171253478E-01
     2.659957475043282        0.4237219233922673E-01
     2.666813035545970        0.4172450731946825E-01
     2.673668596048659        0.4108364279640787E-01
     2.680524156551348        0.4044950601850685E-01
     2.687379717054037        0.3982200532483378E-01
     2.694235277556726        0.3920105013053504E-01
     2.701090838059415        0.3858655091248404E-01
     2.707946398562104        0.3797841919510554E-01
     2.714801959064792        0.3737656753637007E-01
     2.721657519567481        0.3678090951396136E-01
     2.728513080070170        0.3619135971161070E-01
     2.735368640572859        0.3560783370559814E-01
     2.742224201075548        0.3503024805141806E-01
     2.749079761578237        0.3445852027060708E-01
     2.755935322080926        0.3389256883773219E-01
     2.762790882583614        0.3333231316753769E-01
     2.769646443086303        0.3277767360224811E-01
     2.776502003588992        0.3222857139902620E-01
     2.783357564091681        0.3168492871758283E-01
     2.790213124594370        0.3114666860793859E-01
     2.797068685097059        0.3061371499833334E-01
     2.803924245599748        0.3008599268328275E-01
     2.810779806102436        0.2956342731178154E-01
     2.817635366605125        0.2904594537564726E-01
     2.824490927107814        0.2853347419800793E-01
     2.831346487610503        0.2802594192192871E-01
     2.838202048113192        0.2752327749917580E-01
     2.845057608615881        0.2702541067911731E-01
     2.851913169118570        0.2653227199775828E-01
     2.858768729621258        0.2604379276690832E-01
     2.865624290123947        0.2555990506348024E-01
     2.872479850626636        0.2508054171891786E-01
     2.879335411129325        0.2460563630875240E-01
     2.886190971632014        0.2413512314228297E-01
     2.893046532134703        0.2366893725238302E-01
     2.899902092637392        0.2320701438542911E-01
     2.906757653140081        0.2274929099135019E-01
     2.913613213642769        0.2229570421379719E-01
     2.920468774145458        0.2184619188042980E-01
     2.927324334648147        0.2140069249332032E-01
     2.934179895150836        0.2095914521947184E-01
     2.941035455653525        0.2052148988144984E-01
     2.947891016156214        0.2008766694812631E-01
     2.954746576658903        0.1965761752553280E-01
     2.961602137161592        0.1923128334782377E-01
     2.968457697664280        0.1880860676834658E-01
     2.975313258166969        0.1838953075081727E-01
     2.982168818669658        0.1797399886060160E-01
     2.989024379172347        0.1756195525609845E-01
     2.995879939675036        0.1715334468022589E-01
     3.002735500177725        0.1674811245200624E-01
     3.009591060680414        0.1634620445825176E-01
     3.016446621183103        0.1594756714534661E-01
     3.023302181685791        0.1555214751112612E-01
     3.030157742188480        0.1515989309685014E-01
     3.037013302691169        0.1477075197927089E-01
     3.043868863193858        0.1438467276279324E-01
     3.050724423696547        0.1400160457172518E-01
     3.057579984199236        0.1362149704261954E-01
     3.064435544701925        0.1324430031670300E-01
     3.071291105204613        0.1286996503239379E-01
     3.078146665707302        0.1249844231790449E-01
     3.085002226209991        0.1212968378393036E-01
     3.091857786712680        0.1176364151642188E-01
     3.098713347215369        0.1140026806943937E-01
     3.105568907718058        0.1103951645951073E-01
     3.112424468220747        0.1068134023993954E-01
     3.119280028723436        0.1032569448520085E-01
     3.126135589226124        0.9972540153402676E-02
     3.132991149728813        0.9621853665073272E-02
     3.139846710231502        0.9273639896092952E-02
     3.146702270734191        0.8927944620716935E-02
     3.153557831236880        0.8584863284547339E-02
     3.160413391739569        0.8244544923738245E-02
     3.167268952242258        0.7907191537823497E-02
     3.174124512744947        0.7573053937214801E-02
     3.180980073247635        0.7242425237785668E-02
     3.187835633750324        0.6915633040645770E-02
     3.194691194253013        0.6593031102540624E-02
     3.201546754755702        0.6274991068096179E-02
     3.208402315258391        0.5961894638305027E-02
     3.215257875761080        0.5654126399167161E-02
     3.222113436263769        0.5352067426202434E-02
     3.228968996766458        0.5056089706402040E-02
     3.235824557269146        0.4766551370629857E-02
     3.242680117771835        0.4483792699306291E-02
     3.249535678274524        0.4208132846817511E-02
     3.256391238777213        0.3939867221311288E-02
     3.263246799279902        0.3679265453415828E-02
     3.270102359782591        0.3426569887840532E-02
     3.276957920285280        0.3181994534368703E-02
     3.283813480787969        0.2945724418431986E-02
     3.290669041290657        0.2717915275617922E-02
     3.297524601793346        0.2498693538624098E-02
     3.304380162296035        0.2288156569013327E-02
     3.311235722798724        0.2086373089351980E-02
     3.318091283301413        0.1893383773650509E-02
     3.324946843804102        0.1709201955104421E-02
     3.331802404306791        0.1533814409406702E-02
     3.338657964809479        0.1367182168474838E-02
     3.345513525312168        0.1209241311730359E-02
     3.352369085814857        0.1059903667236558E-02
     3.359224646317546        0.9190573276102999E-03
     3.366080206820235        0.7865668348741102E-03
     3.372935767322924        0.6622727915281312E-03
     3.379791327825613        0.5459904606861982E-03
     3.386646888328302        0.4375064998620922E-03
     3.393502448830990        0.3365719858328256E-03
     3.400358009333679        0.2428872466989687E-03
     3.407213569836368        0.1560655686426168E-03
     3.414069130339057        0.7552702641872056E-04
     3.420924690841746         0.000000000000000    
  0  2  2  0  0.000000   #orbital l, n, z, is_polarized, population
 500    0.4217483330125469E-02     2.104524181732609     # npts, delta, cutoff
     0.000000000000000         2.292767605796316    
    0.4217483330125469E-02     2.292717402068571    
    0.8434966660250938E-02     2.292667752485133    
    0.1265244999037641E-01     2.292585035138912    
    0.1686993332050188E-01     2.292469197899361    
    0.2108741665062734E-01     2.292320191822887    
    0.2530489998075281E-01     2.292137957829357    
    0.2952238331087828E-01     2.291922424822041    
    0.3373986664100375E-01     2.291673509243123    
    0.3795734997112922E-01     2.291391114952866    
    0.4217483330125469E-01     2.291075133210086    
    0.4639231663138016E-01     2.290725442693299    
    0.5060979996150562E-01     2.290341909542447    
    0.5482728329163109E-01     2.289924387413449    
    0.5904476662175656E-01     2.289472717542348    
    0.6326224995188204E-01     2.288986728817573    
    0.6747973328200750E-01     2.288466237859604    
    0.7169721661213296E-01     2.287911049107779    
    0.7591469994225844E-01     2.287320954914049    
    0.8013218327238390E-01     2.286695735643678    
    0.8434966660250938E-01     2.286035159782913    
    0.8856714993263484E-01     2.285338984053689    