<preamble>

<basis_specs>
===============================================================================
Ga                   Z=  31    Mass=  69.723        Charge= 0.17977+309
Lmxo=2 Lmxkb= 2    BasisType=split      Semic=T
L=0  Nsemic=0  Cnfigmx=4
          i=1  nzeta=2  polorb=0  (4s)
            splnorm:   0.15000    
               vcte:    40.000    
               rinn:    5.4895    
               qcoe:    0.0000    
               qyuk:    0.0000    
               qwid:   0.10000E-01
                rcs:    6.0933      4.2439    
            lambdas:    1.0000      1.0000    
L=1  Nsemic=0  Cnfigmx=4
          i=1  nzeta=2  polorb=0  (4p)  (to be polarized non-perturbatively)
            splnorm:   0.15000    
               vcte:    40.000    
               rinn:    7.6315    
               qcoe:    0.0000    
               qyuk:    0.0000    
               qwid:   0.10000E-01
                rcs:    8.4795      6.0750    
            lambdas:    1.0000      1.0000    
L=2  Nsemic=1  Cnfigmx=4
          i=1  nzeta=1  polorb=0  (3d)  (semicore shell)
            splnorm:   0.15000    
               vcte:    40.000    
               rinn:    2.9786    
               qcoe:    0.0000    
               qyuk:    0.0000    
               qwid:   0.10000E-01
                rcs:    3.3062    
            lambdas:    1.0000    
          i=2  nzeta=1  polorb=0  (4d)  (non-perturbative polarization shell)
            splnorm:   0.15000    
               vcte:    40.000    
               rinn:    7.6392    
               qcoe:    0.0000    
               qyuk:    0.0000    
               qwid:   0.10000E-01
                rcs:    8.4795    
            lambdas:    1.0000    
-------------------------------------------------------------------------------
L=0  Nkbl=1  erefs: 0.17977+309
L=1  Nkbl=1  erefs: 0.17977+309
L=2  Nkbl=2  erefs: 0.17977+309 0.17977+309
===============================================================================
</basis_specs>

<pseudopotential_header>
 Ga pw nrl pcec
 ONCVPSP-3.2018-03-09Hamann's oncvpsp                        
 4s 2.00  r= 1.67/4p 1.00  r= 1.75/3d10.00  r= 1.90/                    3d:4s:4p:
</pseudopotential_header>
</preamble>
Ga                            # Symbol
Ga                            # Label
   31                         # Atomic number
     13.0000000000                             # Valence charge
     69.7230000000        # Mass 
     166.195174651        # Self energy 
   2   6                      # Lmax for basis, no. of nl orbitals 
   2   6                      # Lmax for projectors, no. of nl KB projectors
# PAOs:__________________________
  0  4  1  0  2.000000   #orbital l, n, z, is_polarized, population
 500    0.1221102455763240E-01     6.093301254258567     # npts, delta, cutoff
     0.000000000000000        0.1900175849455895E-01
    0.1221102455763240E-01    0.1908775833241049E-01
    0.2442204911526480E-01    0.1934691092468039E-01
    0.3663307367289720E-01    0.1977856393162938E-01
    0.4884409823052960E-01    0.2038231538566485E-01
    0.6105512278816200E-01    0.2115760346921795E-01
    0.7326614734579440E-01    0.2210370728712500E-01
    0.8547717190342680E-01    0.2321974791384977E-01
    0.9768819646105920E-01    0.2450468966647242E-01
    0.1098992210186916        0.2595734159081323E-01
    0.1221102455763240        0.2757635915095485E-01
    0.1343212701339564        0.2936024611237655E-01
    0.1465322946915888        0.3130735660847912E-01
    0.1587433192492212        0.3341589737983965E-01
    0.1709543438068536        0.3568393017518473E-01
    0.1831653683644860        0.3810937430287748E-01
    0.1953763929221184        0.4069000932163735E-01
    0.2075874174797508        0.4342347785931674E-01
    0.2197984420373832        0.4630728854882869E-01
    0.2320094665950156        0.4933881907075704E-01
    0.2442204911526480        0.5251531929277654E-01
    0.2564315157102804        0.5583391449675489E-01
    0.2686425402679128        0.5929160868528876E-01
    0.2808535648255452        0.6288528796042681E-01
    0.2930645893831776        0.6661172396842768E-01
    0.3052756139408100        0.7046757740557338E-01
    0.3174866384984424        0.7444940158128456E-01
    0.3296976630560748        0.7855364603603178E-01
    0.3419086876137072        0.8277666021279578E-01
    0.3541197121713396        0.8711469718205220E-01
    0.3663307367289720        0.9156391742144232E-01
    0.3785417612866044        0.9612039265239065E-01
    0.3907527858442368        0.1007801097369381    
    0.4029638104018692        0.1055389746389433    
    0.4151748349595016        0.1103928164545433    
    0.4273858595171340        0.1153373915173454    
    0.4395968840747664        0.1203683875842223    
    0.4518079086323988        0.1254814281077886    
    0.4640189331900312        0.1306720766016483    
    0.4762299577476636        0.1359358411042934    
    0.4884409823052960        0.1412681787471245    
    0.5006520068629283        0.1466645004314247    
    0.5128630314205608        0.1521201756182838    
    0.5250740559781932        0.1576305372344230    
    0.5372850805358256        0.1631908866956325    
    0.5494961050934579        0.1687964990481177    
    0.5617071296510904        0.1744426282264748    
    0.5739181542087228        0.1801245124252928    
    0.5861291787663552        0.1858373795795513    
    0.5983402033239875        0.1915764529470469    
    0.6105512278816200        0.1973369567840961    
    0.6227622524392524        0.2031141221037414    
    0.6349732769968848        0.2089031925036471    
    0.6471843015545171        0.2146994300488957    
    0.6593953261121496        0.2204981211929454    
    0.6716063506697820        0.2262945827181765    
    0.6838173752274144        0.2320841676757528    
    0.6960283997850467        0.2378622713029538    
    0.7082394243426792        0.2436243368947920    
    0.7204504489003116        0.2493658616055657    
    0.7326614734579440        0.2550824021550947    
    0.7448724980155763        0.2607695804137476    
    0.7570835225732088        0.2664230888400079    
    0.7692945471308412        0.2720386957442556    
    0.7815055716884736        0.2776122503526946    
    0.7937165962461059        0.2831396876459245    
    0.8059276208037384        0.2886170329475214    
    0.8181386453613708        0.2940404062392219    
    0.8303496699190032        0.2994060261808029    
    0.8425606944766355        0.3047102138145755    
    0.8547717190342680        0.3099493959365295    
    0.8669827435919004        0.3151201081185357    
    0.8791937681495328        0.3202189973686514    
    0.8914047927071651        0.3252428244194158    
    0.9036158172647976        0.3301884656370666    
    0.9158268418224300        0.3350529145478079    
    0.9280378663800624        0.3398332829805782    
    0.9402488909376947        0.3445268018291486    
    0.9524599154953272        0.3491308214398633    
    0.9646709400529596        0.3536428116347305    
    0.9768819646105920        0.3580603613830029    
    0.9890929891682243        0.3623811781376949    
     1.001304013725857        0.3666030868566507    
     1.013515038283489        0.3707240287308263    
     1.025726062841122        0.3747420596452376    
     1.037937087398754        0.3786553484005781    
     1.050148111956386        0.3824621747258269    
     1.062359136514019        0.3861609271140851    
     1.074570161071651        0.3897501005155407    
     1.086781185629283        0.3932282939226937    
     1.098992210186916        0.3965942078838428    
     1.111203234744548        0.3998466419813055    
     1.123414259302181        0.4029844923108765    
     1.135625283859813        0.4060067489986733    
     1.147836308417446        0.4089124937906945    
     1.160047332975078        0.4117008977492346    
     1.172258357532710        0.4143712190886574    
     1.184469382090343        0.4169228011810180    
     1.196680406647975        0.4193550707596564    
     1.208891431205608        0.4216675363461221    
     1.221102455763240        0.4238597869227683    
     1.233313480320872        0.4259314908699958    
     1.245524504878505        0.4278823951835519    
     1.257735529436137        0.4297123249834903    
     1.269946553993770        0.4314211833224578    
     1.282157578551402        0.4330089512968753    
     1.294368603109034        0.4344756884604647    
     1.306579627666667        0.4358215335353953    
     1.318790652224299        0.4370467053953010    
     1.331001676781931        0.4381515010346682    
     1.343212701339564        0.4391362973954098    
     1.355423725897196        0.4400015572968659    
     1.367634750454829        0.4407478307875014    
     1.379845775012461        0.4413757573014678    
     1.392056799570093        0.4418860679707843    
     1.404267824127726        0.4422795880598343    
     1.416478848685358        0.4425572394872272    
     1.428689873242991        0.4427200433982463    
     1.440900897800623        0.4427691227496747    
     1.453111922358256        0.4427057048677970    
     1.465322946915888        0.4425311239398446    
     1.477533971473520        0.4422468233990434    
     1.489744996031153        0.4418543581638090    
     1.501956020588785        0.4413553966924366    
     1.514167045146418        0.4407517228159125    
     1.526378069704050        0.4400452373131491    
     1.538589094261682        0.4392379591950634    
     1.550800118819315        0.4383320266663960    
     1.563011143376947        0.4373296977370092    
     1.575222167934579        0.4362333504575773    
     1.587433192492212        0.4350454827580172    
     1.599644217049844        0.4337687118707170    
     1.611855241607477        0.4324057733254058    
     1.624066266165109        0.4309595197380465    
     1.636277290722742        0.4294329183895952    
     1.648488315280374        0.4278290493423200    
     1.660699339838006        0.4261511075067338    
     1.672910364395639        0.4244023933511836    
     1.685121388953271        0.4225862594086224    
     1.697332413510904        0.4207060207572738    
     1.709543438068536        0.4187648859015620    
     1.721754462626168        0.4167659410646284    
     1.733965487183801        0.4147121665355997    
     1.746176511741433        0.4126064403670759    
     1.758387536299066        0.4104515394253051    
     1.770598560856698        0.4082501429881983    
     1.782809585414330        0.4060048359003153    
     1.795020609971963        0.4037181115802905    
     1.807231634529595        0.4013923749430213    
     1.819442659087227        0.3990299452369106    
     1.831653683644860        0.3966330587977681    
     1.843864708202492        0.3942038717210863    
     1.856075732760125        0.3917444624544409    
     1.868286757317757        0.3892568343118005    
     1.880497781875389        0.3867429179115865    
     1.892708806433022        0.3842045735402830    
     1.904919830990654        0.3816435934435032    
     1.917130855548287        0.3790617040463179    
     1.929341880105919        0.3764605681046764    
     1.941552904663552        0.3738417867898215    
     1.953763929221184        0.3712069017073382    
     1.965974953778816        0.3685573968528402    
     1.978185978336449        0.3658947005060063    
     1.990397002894081        0.3632201870646939    
     2.002608027451713        0.3605351788209669    
     2.014819052009346        0.3578409476806315    
     2.027030076566978        0.3551387168279969    
     2.039241101124611        0.3524296623375317    
     2.051452125682243        0.3497149147339899    
     2.063663150239876        0.3469955605025745    
     2.075874174797508        0.3442726435506747    
     2.088085199355140        0.3415471666226693    
     2.100296223912773        0.3388200926692535    
     2.112507248470405        0.3360923461727066    
     2.124718273028038        0.3333648144294807    
     2.136929297585670        0.3306383487914550    
     2.149140322143302        0.3279137658671606    
     2.161351346700935        0.3251918486842459    
     2.173562371258567        0.3224733478144153    
     2.185773395816200        0.3197589824620366    
     2.197984420373832        0.3170494415175813    
     2.210195444931464        0.3143453845770244    
     2.222406469489097        0.3116474429282936    
     2.234617494046729        0.3089562205058321    
     2.246828518604362        0.3062722948143002    
     2.259039543161994        0.3035962178224090    
     2.271250567719626        0.3009285168278555    
     2.283461592277259        0.2982696952942881    
     2.295672616834891        0.2956202336612091    
     2.307883641392523        0.2929805901276931    
     2.320094665950156        0.2903512014107620    
     2.332305690507788        0.2877324834792445    
     2.344516715065421        0.2851248322639094    
     2.356727739623053        0.2825286243446453    
     2.368938764180685        0.2799442176154260    
     2.381149788738318        0.2773719519277851    
     2.393360813295950        0.2748121497134943    
     2.405571837853583        0.2722651165871190    
     2.417782862411215        0.2697311419291012    
     2.429993886968847        0.2672104994500031    
     2.442204911526480        0.2647034477365175    
     2.454415936084112        0.2622102307798372    
     2.466626960641745        0.2597310784869502    
     2.478837985199377        0.2572662071754159    
     2.491049009757010        0.2548158200521538    
     2.503260034314642        0.2523801076767591    
     2.515471058872274        0.2499592484098448    
     2.527682083429907        0.2475534088468963    
     2.539893107987539        0.2451627442380966    
     2.552104132545172        0.2427873988945840    
     2.564315157102804        0.2404275065815687    
     2.576526181660436        0.2380831908987373    
     2.588737206218068        0.2357545656483503    
     2.600948230775701        0.2334417351914261    
     2.613159255333334        0.2311447947923981    
     2.625370279890966        0.2288638309526093    
     2.637581304448598        0.2265989217330039    
     2.649792329006231        0.2243501370663620    
     2.662003353563863        0.2221175390594100    
     2.674214378121496        0.2199011822851310    
     2.686425402679128        0.2177011140655898    
     2.698636427236760        0.2155173747455712    
     2.710847451794393        0.2133499979573270    
     2.723058476352025        0.2111990108767173    
     2.735269500909657        0.2090644344710126    
     2.747480525467290        0.2069462837386314    
     2.759691550024922        0.2048445679410641    
     2.771902574582555        0.2027592908272295    
     2.784113599140187        0.2006904508505134    
     2.796324623697819        0.1986380413787105    
     2.808535648255452        0.1966020508971016    
     2.820746672813084        0.1945824632048838    
     2.832957697370717        0.1925792576051612    
     2.845168721928349        0.1905924090887016    
     2.857379746485981        0.1886218885116565    
     2.869590771043614        0.1866676627674350    
     2.881801795601246        0.1847296949529198    
     2.894012820158879        0.1828079445292025    
     2.906223844716511        0.1809023674770026    
     2.918434869274143        0.1790129164469548    
     2.930645893831776        0.1771395409049177    
     2.942856918389408        0.1752821872724625    
     2.955067942947041        0.1734407990626770    
     2.967278967504673        0.1716153170114640    
     2.979489992062305        0.1698056792045491    
     2.991701016619938        0.1680118211999879    
     3.003912041177570        0.1662336761466911    
     3.016123065735203        0.1644711748991808    
     3.028334090292835        0.1627242461283279    
     3.040545114850468        0.1609928164283219    
     3.052756139408100        0.1592768104200427    
     3.064967163965732        0.1575761508509574    
     3.077178188523365        0.1558907586916314    
     3.089389213080997        0.1542205532289449    
     3.101600237638630        0.1525654521561380    
     3.113811262196262        0.1509253716597718    
     3.126022286753894        0.1493002265037122    
     3.138233311311527        0.1476899301102204    
     3.150444335869159        0.1460943946382510    
     3.162655360426792        0.1445135310590374    
     3.174866384984424        0.1429472492290566    
     3.187077409542056        0.1413954579604499    
     3.199288434099689        0.1398580650889865    
     3.211499458657321        0.1383349775396407    
     3.223710483214953        0.1368261013898619    
     3.235921507772586        0.1353313419306110    
     3.248132532330218        0.1338506037252293    
     3.260343556887851        0.1323837906662131    
     3.272554581445483        0.1309308060299576    
     3.284765606003115        0.1294915525295336    
     3.296976630560748        0.1280659323655627    
     3.309187655118380        0.1266538472752452    
     3.321398679676013        0.1252551985796073    
     3.333609704233645        0.1238698872290148    
     3.345820728791277        0.1224978138470152    
     3.358031753348910        0.1211388787725591    
     3.370242777906542        0.1197929821006507    
     3.382453802464175        0.1184600237214781    
     3.394664827021807        0.1171399033580747    
     3.406875851579439        0.1158325206025523    
     3.419086876137072        0.1145377749509570    
     3.431297900694704        0.1132555658367904    
     3.443508925252337        0.1119857926632339    
     3.455719949809969        0.1107283548341264    
     3.467930974367602        0.1094831517837258    
     3.480141998925234        0.1082500830053008    
     3.492353023482866        0.1070290480785848    
     3.504564048040498        0.1058199466961324    
     3.516775072598131        0.1046226786886110    
     3.528986097155764        0.1034371440490630    
     3.541197121713396        0.1022632429561720    
     3.553408146271028        0.1011008757965636    
     3.565619170828660        0.9994994318617265E-01
     3.577830195386293        0.9881034599070883E-01
     3.590041219943926        0.9768198534524690E-01
     3.602252244501558        0.9656476267297108E-01
     3.614463269059190        0.9545857970310143E-01
     3.626674293616823        0.9436333848802952E-01
     3.638885318174455        0.9327894141968628E-01
     3.651096342732087        0.9220529124517005E-01
     3.663307367289720        0.9114229108165811E-01
     3.675518391847352        0.9008984443062483E-01
     3.687729416404985        0.8904785519138793E-01
     3.699940440962617        0.8801622767400784E-01
     3.712151465520249        0.8699486661155952E-01
     3.724362490077882        0.8598367717179761E-01
     3.736573514635514        0.8498256496823559E-01
     3.748784539193147        0.8399143607065672E-01
     3.760995563750779        0.8301019701507904E-01
     3.773206588308411        0.8203875481318895E-01
     3.785417612866044        0.8107701696126349E-01
     3.797628637423676        0.8012489144859683E-01
     3.809839661981309        0.7918228676544957E-01
     3.822050686538941        0.7824911191053537E-01
     3.834261711096573        0.7732527639806074E-01
     3.846472735654206        0.7641069026433350E-01
     3.858683760211838        0.7550526407395541E-01
     3.870894784769471        0.7460890892561046E-01
     3.883105809327103        0.7372153645746646E-01
     3.895316833884735        0.7284305885219990E-01
     3.907527858442368        0.7197338884165877E-01
     3.919738883000000        0.7111243971117576E-01
     3.931949907557633        0.7026012530354329E-01
     3.944160932115265        0.6941636002266266E-01
     3.956371956672897        0.6858105883687927E-01
     3.968582981230530        0.6775413728201322E-01
     3.980794005788162        0.6693551146409908E-01
     3.993005030345794        0.6612509806184079E-01
     4.005216054903427        0.6532281432879603E-01
     4.017427079461060        0.6452857809529813E-01
     4.029638104018692        0.6374230777012375E-01
     4.041849128576324        0.6296392234191772E-01
     4.054060153133957        0.6219334138038195E-01
     4.066271177691589        0.6143048503723879E-01
     4.078482202249221        0.6067527404697590E-01
     4.090693226806854        0.5992762972738016E-01
     4.102904251364486        0.5918747397987124E-01
     4.115115275922118        0.5845472928963863E-01
     4.127326300479751        0.5772931872559272E-01
     4.139537325037383        0.5701116594013492E-01
     4.151748349595016        0.5630019516875414E-01
     4.163959374152649        0.5559633122945835E-01
     4.176170398710281        0.5489949952204352E-01
     4.188381423267913        0.5420962602721002E-01
     4.200592447825546        0.5352663730553123E-01
     4.212803472383178        0.5285046049627965E-01
     4.225014496940810        0.5218102331611671E-01
     4.237225521498442        0.5151825405765173E-01
     4.249436546056075        0.5086208158787562E-01
     4.261647570613707        0.5021243534647441E-01
     4.273858595171339        0.4956924534402627E-01
     4.286069619728972        0.4893244216008918E-01
     4.298280644286605        0.4830195694118305E-01
     4.310491668844237        0.4767772139866851E-01
     4.322702693401870        0.4705966780653111E-01
     4.334913717959502        0.4644772899907181E-01
     4.347124742517134        0.4584183836850821E-01
     4.359335767074767        0.4524192986249258E-01
     4.371546791632399        0.4464793798154824E-01
     4.383757816190031        0.4405979777642902E-01
     4.395968840747663        0.4347744484540542E-01
     4.408179865305296        0.4290081533148071E-01
     4.420390889862928        0.4232984591954089E-01
     4.432601914420561        0.4176447383344051E-01
     4.444812938978194        0.4120463683302912E-01
     4.457023963535826        0.4065027321112015E-01
     4.469234988093458        0.4010132179040596E-01
     4.481446012651091        0.3955772192032102E-01
     4.493657037208723        0.3901941347385743E-01
     4.505868061766355        0.3848633684433370E-01
     4.518079086323988        0.3795843294212051E-01
     4.530290110881620        0.3743564319132606E-01
     4.542501135439252        0.3691790952644231E-01
     4.554712159996885        0.3640517438895552E-01
     4.566923184554518        0.3589738072392314E-01
     4.579134209112150        0.3539447197651859E-01
     4.591345233669783        0.3489639208854645E-01
     4.603556258227415        0.3440308549493076E-01
     4.615767282785047        0.3391449712017698E-01
     4.627978307342679        0.3343057237481042E-01
     4.640189331900312        0.3295125715179309E-01
     4.652400356457944        0.3247649782292012E-01
     4.664611381015576        0.3200624123519753E-01
     4.676822405573209        0.3154043470720402E-01
     4.689033430130841        0.3107902602543632E-01
     4.701244454688474        0.3062196344064185E-01
     4.713455479246107        0.3016919566413880E-01
     4.725666503803739        0.2972067186412504E-01
     4.737877528361371        0.2927634166197817E-01
     4.750088552919004        0.2883615512854678E-01
     4.762299577476636        0.2840006278043545E-01
     4.774510602034268        0.2796801557628353E-01
     4.786721626591900        0.2753996491303965E-01
     4.798932651149533        0.2711586262223299E-01
     4.811143675707165        0.2669566096624195E-01
     4.823354700264797        0.2627931263456178E-01
     4.835565724822430        0.2586677074007185E-01
     4.847776749380063        0.2545798881530398E-01
     4.859987773937695        0.2505292080871159E-01
     4.872198798495328        0.2465152108094266E-01
     4.884409823052960        0.2425374440111470E-01
     4.896620847610592        0.2385954594309478E-01
     4.908831872168225        0.2346888128178488E-01
     4.921042896725857        0.2308170638941173E-01
     4.933253921283489        0.2269797763182426E-01
     4.945464945841122        0.2231765176479806E-01
     4.957675970398754        0.2194068593034713E-01
     4.969886994956386        0.2156703765304461E-01
     4.982098019514019        0.2119666483635249E-01
     4.994309044071652        0.2082952575896093E-01
     5.006520068629284        0.2046557907113774E-01
     5.018731093186916        0.2010478379108870E-01
     5.030942117744549        0.1974709930132929E-01
     5.043153142302181        0.1939248534506788E-01
     5.055364166859813        0.1904090202260102E-01
     5.067575191417446        0.1869230978772231E-01
     5.079786215975078        0.1834666944414281E-01
     5.091997240532710        0.1800394214192627E-01
     5.104208265090343        0.1766408937393747E-01
     5.116419289647975        0.1732707297230489E-01
     5.128630314205608        0.1699285510489811E-01
     5.140841338763241        0.1666139827181964E-01
     5.153052363320873        0.1633266530191252E-01
     5.165263387878505        0.1600661934928252E-01
     5.177474412436137        0.1568322388983680E-01
     5.189685436993770        0.1536244271783845E-01
     5.201896461551402        0.1504423994247663E-01
     5.214107486109034        0.1472857998445351E-01
     5.226318510666667        0.1441542757258833E-01
     5.238529535224299        0.1410474774043714E-01
     5.250740559781931        0.1379650582293065E-01
     5.262951584339564        0.1349066745302828E-01
     5.275162608897197        0.1318719855839082E-01
     5.287373633454829        0.1288606535806878E-01
     5.299584658012462        0.1258723435921010E-01
     5.311795682570094        0.1229067235378415E-01
     5.324006707127726        0.1199634641532465E-01
     5.336217731685359        0.1170422389568977E-01
     5.348428756242991        0.1141427242184048E-01
     5.360639780800623        0.1112645989263701E-01
     5.372850805358256        0.1084075447565308E-01
     5.385061829915888        0.1055712460400941E-01
     5.397272854473520        0.1027553897322392E-01
     5.409483879031153        0.9995966538081456E-02
     5.421694903588786        0.9718376509521251E-02
     5.433905928146418        0.9442738351542962E-02
     5.446116952704050        0.9169021778130818E-02
     5.458327977261683        0.8897196750196115E-02
     5.470539001819315        0.8627233472538888E-02
     5.482750026376947        0.8359102390826417E-02
     5.494961050934580        0.8092774188591608E-02
     5.507172075492212        0.7828219784248495E-02
     5.519383100049844        0.7565410328127811E-02
     5.531594124607477        0.7304317201216957E-02
     5.543805149165109        0.7044912108026725E-02
     5.556016173722742        0.6787168237583118E-02
     5.568227198280374        0.6531065362933775E-02
     5.580438222838007        0.6276600947665973E-02
     5.592649247395639        0.6023805031275714E-02
     5.604860271953271        0.5772754189690056E-02
     5.617071296510904        0.5523580941538582E-02
     5.629282321068536        0.5276477293026510E-02
     5.641493345626168        0.5031692875076679E-02
     5.653704370183801        0.4789528952754351E-02
     5.665915394741433        0.4550329746391328E-02
     5.678126419299065        0.4314472328370763E-02
     5.690337443856698        0.4082356071629623E-02
     5.702548468414331        0.3854392339422091E-02
     5.714759492971963        0.3630994865910763E-02
     5.726970517529596        0.3412571093596086E-02
     5.739181542087228        0.3199514601198018E-02
     5.751392566644860        0.2992198664366560E-02
     5.763603591202493        0.2790970931353250E-02
     5.775814615760125        0.2596149157913614E-02
     5.788025640317757        0.2408017923537965E-02
     5.800236664875389        0.2226826239648495E-02
     5.812447689433022        0.2052785956096473E-02
     5.824658713990654        0.1886070872615670E-02
     5.836869738548287        0.1726816465108153E-02
     5.849080763105920        0.1575120141548290E-02
     5.861291787663552        0.1431041948083813E-02
     5.873502812221184        0.1294605652026841E-02
     5.885713836778817        0.1165800134483619E-02
     5.897924861336449        0.1044581031080082E-02
     5.910135885894081        0.9308725643669367E-03
     5.922346910451714        0.8245695157851234E-03
     5.934557935009346        0.7255392882186376E-03
     5.946768959566978        0.6336240116578633E-03
     5.958979984124610        0.5486426434828048E-03
     5.971191008682244        0.4703930097901135E-03
     5.983402033239876        0.3986537220306534E-03
     5.995613057797508        0.3331858779651258E-03
     6.007824082355141        0.2737344047308883E-03
     6.020035106912773        0.2200287953194851E-03
     6.032246131470405        0.1717827552002095E-03
     6.044457156028038        0.1286917121005549E-03
     6.056668180585670        0.9042560957493663E-04
     6.068879205143302        0.5660942767577904E-04
     6.081090229700935        0.2676243202895220E-04
     6.093301254258567         0.000000000000000    
  0  4  2  0  0.000000   #orbital l, n, z, is_polarized, population
 500    0.8504755101272037E-02     4.243872795534746     # npts, delta, cutoff
     0.000000000000000       -0.2748426434886435    
    0.8504755101272037E-02   -0.2747637160873693    
    0.1700951020254407E-01   -0.2745246503834199    
    0.2551426530381611E-01   -0.2741263256799930    
    0.3401902040508815E-01   -0.2735689202237300    
    0.4252377550636018E-01   -0.2728526831065888    
    0.5102853060763222E-01   -0.2719779342382064    
    0.5953328570890426E-01   -0.2709450641380265    
    0.6803804081017630E-01   -0.2697545336617975    
    0.7654279591144833E-01   -0.2684068736760128    