<preamble>

<basis_specs>
===============================================================================
Ge                   Z=  32    Mass=  72.630        Charge= 0.17977+309
Lmxo=2 Lmxkb= 2    BasisType=split      Semic=T
L=0  Nsemic=0  Cnfigmx=4
          i=1  nzeta=2  polorb=0  (4s)
            splnorm:   0.15000    
               vcte:    40.000    
               rinn:    5.0112    
               qcoe:    0.0000    
               qyuk:    0.0000    
               qwid:   0.10000E-01
                rcs:    5.5680      3.8352    
            lambdas:    1.0000      1.0000    
L=1  Nsemic=0  Cnfigmx=4
          i=1  nzeta=2  polorb=0  (4p)  (to be polarized non-perturbatively)
            splnorm:   0.15000    
               vcte:    40.000    
               rinn:    6.7136    
               qcoe:    0.0000    
               qyuk:    0.0000    
               qwid:   0.10000E-01
                rcs:    7.4595      5.2695    
            lambdas:    1.0000      1.0000    
L=2  Nsemic=1  Cnfigmx=4
          i=1  nzeta=1  polorb=0  (3d)  (semicore shell)
            splnorm:   0.15000    
               vcte:    40.000    
               rinn:    2.6674    
               qcoe:    0.0000    
               qyuk:    0.0000    
               qwid:   0.10000E-01
                rcs:    2.9608    
            lambdas:    1.0000    
          i=2  nzeta=1  polorb=0  (4d)  (non-perturbative polarization shell)
            splnorm:   0.15000    
               vcte:    40.000    
               rinn:    6.7203    
               qcoe:    0.0000    
               qyuk:    0.0000    
               qwid:   0.10000E-01
                rcs:    7.4595    
            lambdas:    1.0000    
-------------------------------------------------------------------------------
L=0  Nkbl=1  erefs: 0.17977+309
L=1  Nkbl=1  erefs: 0.17977+309
L=2  Nkbl=2  erefs: 0.17977+309 0.17977+309
===============================================================================
</basis_specs>

<pseudopotential_header>
 Ge pw nrl pcec
 ONCVPSP-3.2020-12-01Hamann's oncvpsp                        
 4s 2.00  r= 1.91/4p 2.00  r= 1.82/3d10.00  r= 1.91/                    3d:4s:4p:
</pseudopotential_header>
</preamble>
Ge                            # Symbol
Ge                            # Label
   32                         # Atomic number
     14.0000000000                             # Valence charge
     72.6300000000        # Mass 
     180.956208719        # Self energy 
   2   6                      # Lmax for basis, no. of nl orbitals 
   2   6                      # Lmax for projectors, no. of nl KB projectors
# PAOs:__________________________
  0  4  1  0  2.000000   #orbital l, n, z, is_polarized, population
 500    0.1115831132138659E-01     5.567997349371907     # npts, delta, cutoff
     0.000000000000000        0.2311978643358851E-01
    0.1115831132138659E-01    0.2321836714498283E-01
    0.2231662264277317E-01    0.2351561421064989E-01
    0.3347493396415976E-01    0.2401065552112768E-01
    0.4463324528554635E-01    0.2470293566703284E-01
    0.5579155660693293E-01    0.2559167899048568E-01
    0.6694986792831951E-01    0.2667589126479844E-01
    0.7810817924970610E-01    0.2795436193228042E-01
    0.8926649057109269E-01    0.2942566682977607E-01
    0.1004248018924793        0.3108817138343494E-01
    0.1115831132138659        0.3294003425786802E-01
    0.1227414245352525        0.3497921144416336E-01
    0.1338997358566390        0.3720346076987645E-01
    0.1450580471780256        0.3961034681264674E-01
    0.1562163584994122        0.4219724619762490E-01
    0.1673746698207988        0.4496135325747909E-01
    0.1785329811421854        0.4789968603246321E-01
    0.1896912924635720        0.5100909258678453E-01
    0.2008496037849586        0.5428625761641243E-01
    0.2120079151063451        0.5772770932249861E-01
    0.2231662264277317        0.6132982652374128E-01
    0.2343245377491183        0.6508884598032934E-01
    0.2454828490705049        0.6900086990155038E-01
    0.2566411603918915        0.7306187360874104E-01
    0.2677994717132781        0.7726771332500791E-01
    0.2789577830346647        0.8161413406304237E-01
    0.2901160943560512        0.8609677758239651E-01
    0.3012744056774379        0.9071119038778347E-01
    0.3124327169988244        0.9545283174029902E-01
    0.3235910283202110        0.1003170816539490    
    0.3347493396415976        0.1052992488504778    
    0.3459076509629842        0.1103945786462536    
    0.3570659622843708        0.1155982607458424    
    0.3682242736057573        0.1209054369179085    
    0.3793825849271439        0.1263112085301983    
    0.3905408962485305        0.1318106439215916    
    0.4016992075699171        0.1373987855905335    
    0.4128575188913037        0.1430706571805792    
    0.4240158302126903        0.1488212702452898    
    0.4351741415340769        0.1546456307762898    
    0.4463324528554635        0.1605387454799460    
    0.4574907641768500        0.1664956277898101    
    0.4686490754982366        0.1725113036037207    
    0.4798073868196232        0.1785808167362211    
    0.4909656981410098        0.1846992340787504    
    0.5021240094623964        0.1908616504618650    
    0.5132823207837830        0.1970631932155591    
    0.5244406321051696        0.2032990264255530    
    0.5355989434265561        0.2095643548851824    
    0.5467572547479427        0.2158544277442848    
    0.5579155660693293        0.2221645418581709    
    0.5690738773907159        0.2284900448414270    
    0.5802321887121025        0.2348263378329002    
    0.5913905000334890        0.2411688779797196    
    0.6025488113548757        0.2475131806496782    
    0.6137071226762623        0.2538548213826476    
    0.6248654339976488        0.2601894375929724    
    0.6360237453190354        0.2665127300359488    
    0.6471820566404221        0.2728204640525704    
    0.6583403679618086        0.2791084706076499    
    0.6694986792831952        0.2853726471372796    
    0.6806569906045817        0.2916089582222900    
    0.6918153019259684        0.2978134361049534    
    0.7029736132473550        0.3039821810666425    
    0.7141319245687415        0.3101113616844827    
    0.7252902358901281        0.3161972149852321    
    0.7364485472115146        0.3222360465147001    
    0.7476068585329013        0.3282242303409527    
    0.7587651698542879        0.3341582090093613    
    0.7699234811756744        0.3400344934672497    
    0.7810817924970610        0.3458496629754454    
    0.7922401038184477        0.3516003650235029    
    0.8033984151398342        0.3572833152646707    
    0.8145567264612208        0.3628952974859398    
    0.8257150377826074        0.3684331636275777    
    0.8368733491039940        0.3738938338656199    
    0.8480316604253806        0.3792742967696917    
    0.8591899717467671        0.3845716095474009    
    0.8703482830681537        0.3897828983853093    
    0.8815065943895404        0.3949053588952078    
    0.8926649057109269        0.3999362566730639    
    0.9038232170323135        0.4048729279766280    
    0.9149815283537001        0.4097127805262460    
    0.9261398396750866        0.4144532944319724    
    0.9372981509964733        0.4190920232485831    
    0.9484564623178598        0.4236265951586390    
    0.9596147736392464        0.4280547142822100    
    0.9707730849606330        0.4323741621104542    
    0.9819313962820196        0.4365827990587589    
    0.9930897076034062        0.4406785661337345    
     1.004248018924793        0.4446594867069851    
     1.015406330246179        0.4485236683872407    
     1.026564641567566        0.4522693049811666    
     1.037722952888952        0.4558946785319547    
     1.048881264210339        0.4593981614236836    
     1.060039575531726        0.4627782185383832    
     1.071197886853112        0.4660334094517710    
     1.082356198174499        0.4691623906527937    
     1.093514509495885        0.4721639177713131    
     1.104672820817272        0.4750368477976527    
     1.115831132138659        0.4777801412771701    
     1.126989443460045        0.4803928644625823    
     1.138147754781432        0.4828741914064881    
     1.149306066102818        0.4852234059763160    
     1.160464377424205        0.4874399037738908    
     1.171622688745592        0.4895231939418314    
     1.182781000066978        0.4914729008392089    
     1.193939311388365        0.4932887655691556    
     1.205097622709751        0.4949706473415744    
     1.216255934031138        0.4965185246545861    
     1.227414245352525        0.4979324962790541    
     1.238572556673911        0.4992127820312374    
     1.249730867995298        0.5003597233195146    
     1.260889179316684        0.5013737834520881    
     1.272047490638071        0.5022555476936104    
     1.283205801959457        0.5030057230598669    
     1.294364113280844        0.5036251378408280    
     1.305522424602231        0.5041147408437263    
     1.316680735923617        0.5044756003491735    
     1.327839047245004        0.5047089020434696    
     1.338997358566390        0.5048159433768575    
     1.350155669887777        0.5047981367839852    
     1.361313981209163        0.5046570077288471    
     1.372472292530550        0.5043941918937477    
     1.383630603851937        0.5040114323336036    
     1.394788915173323        0.5035105763357097    
     1.405947226494710        0.5028935719905957    
     1.417105537816096        0.5021624644811805    
     1.428263849137483        0.5013193920990179    
     1.439422160458870        0.5003665819979414    
     1.450580471780256        0.4993063456969112    
     1.461738783101643        0.4981410743452984    
     1.472897094423029        0.4968732337652047    
     1.484055405744416        0.4955053592867191    
     1.495213717065803        0.4940400503932333    
     1.506372028387189        0.4924799651950665    
     1.517530339708576        0.4908278147507047    
     1.528688651029962        0.4890863572561084    
     1.539846962351349        0.4872583924822657    
     1.551005273672736        0.4853467548063229    
     1.562163584994122        0.4833543078403579    
     1.573321896315509        0.4812839383300372    
     1.584480207636895        0.4791385498830404    
     1.595638518958282        0.4769210568298544    
     1.606796830279668        0.4746343781114122    
     1.617955141601055        0.4722814312173392    
     1.629113452922442        0.4698651261984514    
     1.640271764243828        0.4673883597769255    
     1.651430075565215        0.4648540095771996    
     1.662588386886601        0.4622649285001800    
     1.673746698207988        0.4596239392627406    
     1.684905009529374        0.4569338291237785    
     1.696063320850761        0.4541973448172654    
     1.707221632172148        0.4514171877118019    
     1.718379943493534        0.4485960092151442    
     1.729538254814921        0.4457364064410350    
     1.740696566136307        0.4428409181544563    
     1.751854877457694        0.4399120210101009    
     1.763013188779081        0.4369521260974879    
     1.774171500100467        0.4339635758046884    
     1.785329811421854        0.4309486410111135    
     1.796488122743240        0.4279095186182565    
     1.807646434064627        0.4248483294256701    
     1.818804745386014        0.4217671163578157    
     1.829963056707400        0.4186678430457543    
     1.841121368028787        0.4155523927659639    
     1.852279679350173        0.4124225677218845    
     1.863437990671560        0.4092800886497659    
     1.874596301992947        0.4061265951063254    
     1.885754613314333        0.4029636459781774    
     1.896912924635720        0.3997927187559454    
     1.908071235957106        0.3966152102987134    
     1.919229547278493        0.3934324429868083    
     1.930387858599879        0.3902456740304643    
     1.941546169921266        0.3870561052385940    
     1.952704481242653        0.3838648912243850    
     1.963862792564039        0.3806731425551085    
     1.975021103885426        0.3774819255809795    
     1.986179415206812        0.3742922632472921    
     1.997337726528199        0.3711051369165794    
     2.008496037849586        0.3679214878391264    
     2.019654349170972        0.3647422183878726    
     2.030812660492359        0.3615681933203932    
     2.041970971813745        0.3584002410068983    
     2.053129283135132        0.3552391546202006    
     2.064287594456518        0.3520856932892609    
     2.075445905777905        0.3489405832174384    
     2.086604217099292        0.3458045187664964    
     2.097762528420678        0.3426781635073778    
     2.108920839742065        0.3395621512387411    
     2.120079151063452        0.3364570869742194    
     2.131237462384838        0.3333635478993354    
     2.142395773706224        0.3302820842989799    
     2.153554085027611        0.3272132204563389    
     2.164712396348998        0.3241574555241225    
     2.175870707670384        0.3211152643689260    
     2.187029018991771        0.3180870983895343    
     2.198187330313158        0.3150733863099507    
     2.209345641634544        0.3120745349479104    
     2.220503952955931        0.3090909299596170    
     2.231662264277317        0.3061229365614200    
     2.242820575598704        0.3031709002291260    
     2.253978886920090        0.3002351473756195    
     2.265137198241477        0.2973159860074478    
     2.276295509562864        0.2944137063610032    
     2.287453820884250        0.2915285815189221    
     2.298612132205637        0.2886608680072931    
     2.309770443527023        0.2858108063742597    
     2.320928754848410        0.2829786217505755    
     2.332087066169796        0.2801645243926580    
     2.343245377491183        0.2773687102086742    
     2.354403688812570        0.2745913612681649    
     2.365562000133956        0.2718326462957111    
     2.376720311455343        0.2690927211491202    
     2.387878622776729        0.2663717292826063    
     2.399036934098116        0.2636698021954130    
     2.410195245419503        0.2609870598663242    
     2.421353556740889        0.2583236111744856    
     2.432511868062276        0.2556795543069567    
     2.443670179383663        0.2530549771533885    
     2.454828490705049        0.2504499576882276    
     2.465986802026435        0.2478645643408107    
     2.477145113347822        0.2452988563537269    
     2.488303424669209        0.2427528841298048    
     2.499461735990595        0.2402266895680572    
     2.510620047311982        0.2377203063889330    
     2.521778358633369        0.2352337604491914    
     2.532936669954755        0.2327670700467172    
     2.544094981276142        0.2303202462155804    
     2.555253292597528        0.2278932930116395    
     2.566411603918915        0.2254862077889742    
     2.577569915240301        0.2230989814674228    
     2.588728226561688        0.2207315987915044    
     2.599886537883075        0.2183840385809758    
     2.611044849204461        0.2160562739732873    
     2.622203160525848        0.2137482726581800    
     2.633361471847234        0.2114599971046634    
     2.644519783168621        0.2091914047806089    
     2.655678094490007        0.2069424483651794    
     2.666836405811394        0.2047130759543188    
     2.677994717132781        0.2025032312595109    
     2.689153028454167        0.2003128538000106    
     2.700311339775554        0.1981418790887527    
     2.711469651096940        0.1959902388121261    
     2.722627962418327        0.1938578610038060    
     2.733786273739714        0.1917446702128196    
     2.744944585061100        0.1896505876660315    
     2.756102896382487        0.1875755314252089    
     2.767261207703874        0.1855194165388409    
     2.778419519025260        0.1834821551888716    
     2.789577830346647        0.1814636568324982    
     2.800736141668033        0.1794638283391936    
     2.811894452989420        0.1774825741230921    
     2.823052764310806        0.1755197962708910    
     2.834211075632193        0.1735753946653971    
     2.845369386953580        0.1716492671048558    
     2.856527698274966        0.1697413094181928    
     2.867686009596353        0.1678514155762988    
     2.878844320917739        0.1659794777994763    
     2.890002632239126        0.1641253866611605    
     2.901160943560512        0.1622890311880310    
     2.912319254881899        0.1604702989566666    
     2.923477566203286        0.1586690761868151    
     2.934635877524672        0.1568852478312318    
     2.945794188846059        0.1551186976624902    
     2.956952500167445        0.1533693083567897    
     2.968110811488832        0.1516369615746629    
     2.979269122810218        0.1499215380388001    
     2.990427434131605        0.1482229176090707    
     3.001585745452992        0.1465409793548568    
     3.012744056774378        0.1448756016247559    
     3.023902368095765        0.1432266621137374    
     3.035060679417152        0.1415940379278367    
     3.046218990738538        0.1399776056464594    
     3.057377302059925        0.1383772413823775    
     3.068535613381311        0.1367928208394850    
     3.079693924702698        0.1352242193683845    
     3.090852236024084        0.1336713120198756    
     3.102010547345471        0.1321339735964101    
     3.113168858666858        0.1306120787015764    
     3.124327169988244        0.1291055017876814    
     3.135485481309631        0.1276141172014824    
     3.146643792631017        0.1261377992281353    
     3.157802103952404        0.1246764221334120    
     3.168960415273791        0.1232298602042426    
     3.180118726595177        0.1217979877876364    
     3.191277037916564        0.1203806793280365    
     3.202435349237950        0.1189778094031513    
     3.213593660559337        0.1175892527583199    
     3.224751971880723        0.1162148843394538    
     3.235910283202110        0.1148545793246019    
     3.247068594523497        0.1135082131541833    
     3.258226905844883        0.1121756615599325    
     3.269385217166270        0.1108568005925982    
     3.280543528487657        0.1095515066484321    
     3.291701839809043        0.1082596564945159    
     3.302860151130429        0.1069811272929569    
     3.314018462451816        0.1057157966239915    
     3.325176773773203        0.1044635425080347    
     3.336335085094589        0.1032242434267066    
     3.347493396415976        0.1019977783428744    
     3.358651707737363        0.1007840267197369    
     3.369810019058749        0.9958286853898646E-01
     3.380968330380136        0.9839418431808167E-01
     3.392126641701522        0.9721785512665465E-01
     3.403284953022909        0.9605376260208590E-01
     3.414443264344295        0.9490178896427351E-01
     3.425601575665682        0.9376181702962404E-01
     3.436759886987069        0.9263373022429201E-01
     3.447918198308455        0.9151741259669141E-01
     3.459076509629842        0.9041274882930632E-01
     3.470234820951228        0.8931962424982327E-01
     3.481393132272615        0.8823792484160917E-01
     3.492551443594002        0.8716753725355612E-01
     3.503709754915388        0.8610834880931727E-01
     3.514868066236775        0.8506024751595158E-01
     3.526026377558162        0.8402312207200097E-01
     3.537184688879548        0.8299686187501808E-01
     3.548343000200934        0.8198135702856428E-01
     3.559501311522321        0.8097649834869604E-01
     3.570659622843708        0.7998217736995929E-01
     3.581817934165094        0.7899828635090665E-01
     3.592976245486481        0.7802471827915715E-01
     3.604134556807868        0.7706136687601306E-01
     3.615292868129254        0.7610812660065100E-01
     3.626451179450640        0.7516489265390099E-01
     3.637609490772027        0.7423156098163024E-01
     3.648767802093414        0.7330802827774537E-01
     3.659926113414800        0.7239419198682669E-01
     3.671084424736187        0.7148995030640877E-01
     3.682242736057574        0.7059520218891993E-01
     3.693401047378960        0.6970984734329330E-01
     3.704559358700346        0.6883378623626303E-01
     3.715717670021733        0.6796692009335534E-01
     3.726875981343120        0.6710915089958812E-01
     3.738034292664506        0.6626038139988899E-01
     3.749192603985893        0.6542051509924332E-01
     3.760350915307280        0.6458945626258238E-01
     3.771509226628666        0.6376710991442132E-01
     3.782667537950053        0.6295338183825787E-01
     3.793825849271439        0.6214817857574127E-01
     3.804984160592826        0.6135140742561828E-01
     3.816142471914213        0.6056297644246927E-01
     3.827300783235599        0.5978279443523911E-01
     3.838459094556986        0.5901077096557381E-01
     3.849617405878372        0.5824681634596977E-01
     3.860775717199759        0.5749084163774340E-01
     3.871934028521145        0.5674275864882990E-01
     3.883092339842532        0.5600247993141733E-01
     3.894250651163919        0.5526991877942262E-01
     3.905408962485305        0.5454498922581841E-01
     3.916567273806692        0.5382760603981579E-01
     3.927725585128079        0.5311768472390866E-01
     3.938883896449465        0.5241514151078848E-01
     3.950042207770851        0.5171989336013275E-01
     3.961200519092238        0.5103185795527473E-01
     3.972358830413625        0.5035095369975905E-01
     3.983517141735011        0.4967709971378934E-01
     3.994675453056398        0.4901021583057252E-01
     4.005833764377784        0.4835022259256524E-01
     4.016992075699171        0.4769704124762730E-01
     4.028150387020558        0.4705059374508642E-01
     4.039308698341944        0.4641080273171955E-01
     4.050467009663331        0.4577759154765453E-01
     4.061625320984717        0.4515088422219697E-01
     4.072783632306104        0.4453060546958588E-01
     4.083941943627490        0.4391668068468224E-01
     4.095100254948878        0.4330903593859487E-01
     4.106258566270264        0.4270759797424672E-01
     4.117416877591650        0.4211229420188452E-01
     4.128575188913037        0.4152305269453782E-01
     4.139733500234423        0.4093980218342673E-01
     4.150891811555810        0.4036247205332543E-01
     4.162050122877197        0.3979099233788345E-01
     4.173208434198584        0.3922529371490519E-01
     4.184366745519970        0.3866530750159395E-01
     4.195525056841356        0.3811096564976278E-01
     4.206683368162743        0.3756220074101170E-01
     4.217841679484129        0.3701894598187835E-01
     4.228999990805516        0.3648113519896150E-01
     4.240158302126903        0.3594870283402040E-01
     4.251316613448290        0.3542158393905321E-01
     4.262474924769676        0.3489971417135642E-01
     4.273633236091062        0.3438302978856576E-01
     4.284791547412449        0.3387146764368360E-01
     4.295949858733835        0.3336496518009303E-01
     4.307108170055223        0.3286346042655942E-01
     4.318266481376609        0.3236689199222464E-01
     4.329424792697996        0.3187519906159271E-01
     4.340583104019382        0.3138832138950925E-01
     4.351741415340769        0.3090619929613778E-01
     4.362899726662155        0.3042877366193307E-01
     4.374058037983541        0.2995598592261250E-01
     4.385216349304929        0.2948777806412936E-01
     4.396374660626315        0.2902409261764676E-01
     4.407532971947702        0.2856487265451489E-01
     4.418691283269088        0.2811006178125292E-01
     4.429849594590475        0.2765960413453622E-01
     4.441007905911861        0.2721344437619060E-01
     4.452166217233248        0.2677152768819421E-01
     4.463324528554635        0.2633379976768865E-01
     4.474482839876021        0.2590020682200018E-01
     4.485641151197408        0.2547069556367155E-01
     4.496799462518794        0.2504521320550589E-01
     4.507957773840181        0.2462370745562447E-01
     4.519116085161567        0.2420612651253613E-01
     4.530274396482954        0.2379241906022328E-01
     4.541432707804341        0.2338253426324237E-01
     4.552591019125727        0.2297642176183993E-01
     4.563749330447114        0.2257403166708648E-01
     4.574907641768500        0.2217531455602706E-01
     4.586065953089887        0.2178022146685015E-01
     4.597224264411274        0.2138870389407550E-01
     4.608382575732660        0.2100071378376073E-01
     4.619540887054047        0.2061620352872845E-01
     4.630699198375433        0.2023512596381293E-01
     4.641857509696820        0.1985743436112820E-01
     4.653015821018206        0.1948308242535769E-01
     4.664174132339593        0.1911202428906434E-01
     4.675332443660980        0.1874421450802464E-01
     4.686490754982366        0.1837960805658351E-01
     4.697649066303753        0.1801816032303336E-01
     4.708807377625139        0.1765982710501555E-01
     4.719965688946526        0.1730456460494573E-01
     4.731124000267912        0.1695232942546311E-01
     4.742282311589300        0.1660307856490321E-01
     4.753440622910686        0.1625676941279641E-01
     4.764598934232072        0.1591335974538893E-01
     4.775757245553459        0.1557280772119063E-01
     4.786915556874845        0.1523507187654667E-01
     4.798073868196232        0.1490011112123469E-01
     4.809232179517619        0.1456788473408722E-01
     4.820390490839006        0.1423835235863959E-01
     4.831548802160392        0.1391147399880370E-01
     4.842707113481779        0.1358721001456675E-01
     4.853865424803165        0.1326552111771678E-01
     4.865023736124551        0.1294636836759346E-01
     4.876182047445938        0.1262971316686494E-01
     4.887340358767325        0.1231551725733084E-01
     4.898498670088712        0.1200374271575117E-01
     4.909656981410098        0.1169435194970154E-01
     4.920815292731485        0.1138730769345407E-01
     4.931973604052871        0.1108257300388489E-01
     4.943131915374257        0.1078011125640773E-01
     4.954290226695645        0.1047988614093309E-01
     4.965448538017031        0.1018186165785419E-01
     4.976606849338418        0.9886002114058179E-02
     4.987765160659804        0.9592272118964329E-02
     4.998923471981191        0.9300636580586967E-02
     5.010081783302577        0.9011060701625512E-02
     5.021240094623963        0.8723509975579538E-02
     5.032398405945351        0.8437950182889436E-02
     5.043556717266737        0.8154347387172037E-02
     5.054715028588124        0.7872667944813019E-02
     5.065873339909510        0.7592878849289524E-02
     5.077031651230897        0.7314950268577106E-02
     5.088189962552283        0.7038863403339221E-02
     5.099348273873670        0.6764623943231528E-02
     5.110506585195057        0.6492277270221605E-02
     5.121664896516443        0.6221920835898286E-02
     5.132823207837830        0.5953711111146849E-02
     5.143981519159216        0.5687864708167255E-02
     5.155139830480603        0.5424654605801577E-02
     5.166298141801989        0.5164402890116322E-02
     5.177456453123376        0.4907471394144206E-02
     5.188614764444763        0.4654251373640531E-02
     5.199773075766149        0.4405153059147651E-02
     5.210931387087536        0.4160595656487033E-02
     5.222089698408922        0.3920998153801471E-02
     5.233248009730309        0.3686771134580838E-02
     5.244406321051696        0.3458309684342061E-02
     5.255564632373082        0.3235987403295420E-02
     5.266722943694469        0.3020151488793058E-02
     5.277881255015855        0.2811118821849054E-02
     5.289039566337242        0.2609172975646610E-02
     5.300197877658628        0.2414562056413629E-02
     5.311356188980015        0.2227497285301908E-02
     5.322514500301402        0.2048152231827776E-02
     5.333672811622789        0.1876662613549149E-02
     5.344831122944175        0.1713126581984079E-02
     5.355989434265561        0.1557605420629754E-02
     5.367147745586948        0.1410124586861709E-02
     5.378306056908334        0.1270675035146288E-02
     5.389464368229722        0.1139214764124767E-02
     5.400622679551108        0.1015670534471676E-02
     5.411780990872495        0.8999397076908622E-03
     5.422939302193881        0.7918921577391410E-03
     5.434097613515267        0.6913722068156903E-03
     5.445255924836654        0.5982005324971834E-03
     5.456414236158040        0.5121759831530815E-03
     5.467572547479428        0.4330772173818200E-03
     5.478730858800814        0.3606640410302450E-03
     5.489889170122201        0.2946782301564443E-03
     5.501047481443587        0.2348434478362748E-03
     5.512205792764973        0.1808634509672256E-03
     5.523364104086360        0.1324167399362043E-03
     5.534522415407747        0.8914274052526667E-04
     5.545680726729134        0.5060389572553726E-04
     5.556839038050520        0.1614504525353051E-04
     5.567997349371907         0.000000000000000    
  0  4  2  0  0.000000   #orbital l, n, z, is_polarized, population
 500    0.7685803882922631E-02     3.835216137578393     # npts, delta, cutoff
     0.000000000000000       -0.3166847633242030    
    0.7685803882922631E-02   -0.3165963882219057    
    0.1537160776584526E-01   -0.3163282737847258    
    0.2305741164876789E-01   -0.3158815724643721    
    0.3074321553169052E-01   -0.3152565198360463    
    0.3842901941461315E-01   -0.3144534449530076    
    0.4611482329753579E-01   -0.3134727702111854    
    0.5380062718045842E-01   -0.3123150109251719    
    0.6148643106338104E-01   -0.3109807747814992    
    0.6917223494630367E-01   -0.3094707611887174    