<preamble>

<basis_specs>
===============================================================================
He                   Z=   2    Mass=  4.0026        Charge= 0.17977+309
Lmxo=1 Lmxkb= 1    BasisType=split      Semic=F
L=0  Nsemic=0  Cnfigmx=1
          i=1  nzeta=2  polorb=1  (1s)  (to be polarized perturbatively)
            splnorm:   0.15000    
               vcte:    40.000    
               rinn:    3.5110    
               qcoe:    0.0000    
               qyuk:    0.0000    
               qwid:   0.10000E-01
                rcs:    3.8972      2.3480    
            lambdas:    1.0000      1.0000    
L=1  Nsemic=0  Cnfigmx=2
          i=1  nzeta=0  polorb=0  (2p)  (perturbative polarization orbital) (from 1s)
-------------------------------------------------------------------------------
L=0  Nkbl=1  erefs: 0.17977+309
L=1  Nkbl=1  erefs: 0.17977+309
===============================================================================
</basis_specs>

<pseudopotential_header>
 He pw nrl nc  
 ONCVPSP-3.2018-03-09Hamann's oncvpsp                        
 1s 2.00  r= 1.26/2p 0.00  r= 1.14/                                     1s:
</pseudopotential_header>
</preamble>
He                            # Symbol
He                            # Label
    2                         # Atomic number
     2.00000000000                             # Valence charge
     4.00260000000        # Mass 
     6.44140835931        # Self energy 
   1   3                      # Lmax for basis, no. of nl orbitals 
   1   3                      # Lmax for projectors, no. of nl KB projectors
# PAOs:__________________________
  0  1  1  0  2.000000   #orbital l, n, z, is_polarized, population
 500    0.7810089015991650E-02     3.897234418979833     # npts, delta, cutoff
     0.000000000000000         2.950566404312361    
    0.7810089015991650E-02     2.950209897389755    
    0.1562017803198330E-01     2.949170141276285    
    0.2343026704797495E-01     2.947438286257408    
    0.3124035606396660E-01     2.945015922709483    
    0.3905044507995825E-01     2.941905277670187    
    0.4686053409594990E-01     2.938109209477015    
    0.5467062311194155E-01     2.933631203279184    
    0.6248071212793320E-01     2.928475365853731    
    0.7029080114392484E-01     2.922646419557003    
    0.7810089015991650E-01     2.916149695383908    
    0.8591097917590815E-01     2.908991125133843    
    0.9372106819189979E-01     2.901177232689993    
    0.1015311572078915         2.892715124421793    
    0.1093412462238831         2.883612478722555    
    0.1171513352398748         2.873877534695821    
    0.1249614242558664         2.863519080005641    
    0.1327715132718580         2.852546437907480    
    0.1405816022878497         2.840969453478093    
    0.1483916913038414         2.828798479064208    
    0.1562017803198330         2.816044358971573    
    0.1640118693358247         2.802718413417542    
    0.1718219583518163         2.788832421772075    
    0.1796320473678079         2.774398605113722    
    0.1874421363837996         2.759429608128932    
    0.1952522253997913         2.743938480384702    
    0.2030623144157829         2.727938657006374    
    0.2108724034317745         2.711443938794075    
    0.2186824924477662         2.694468471813008    
    0.2264925814637578         2.677026726494487    
    0.2343026704797495         2.659133476286215    
    0.2421127594957412         2.640803775891909    
    0.2499228485117328         2.622052939141855    
    0.2577329375277245         2.602896516537425    
    0.2655430265437161         2.583350272513948    
    0.2733531155597078         2.563430162467506    
    0.2811632045756994         2.543152309592436    
    0.2889732935916910         2.522532981577244    
    0.2967833826076827         2.501588567207544    
    0.3045934716236743         2.480335552925356    
    0.3124035606396660         2.458790499394642    
    0.3202136496556576         2.436970018123351    
    0.3280237386716493         2.414890748192532    
    0.3358338276876410         2.392569333143019    
    0.3436439167036326         2.370022398070161    
    0.3514540057196243         2.347266526976660    
    0.3592640947356159         2.324318240433144    
    0.3670741837516076         2.301193973595276    
    0.3748842727675992         2.277910054625424    
    0.3826943617835908         2.254482683565679    
    0.3905044507995825         2.230927956482916    
    0.3983145398155741         2.207261718848402    
    0.4061246288315658         2.183499654909471    
    0.4139347178475574         2.159657251641157    
    0.4217448068635491         2.135749770566390    
    0.4295548958795408         2.111792230236053    
    0.4373649848955324         2.087799389441707    
    0.4451750739115241         2.063785731192525    
    0.4529851629275157         2.039765447485335    
    0.4607952519435073         2.015752424893923    
    0.4686053409594990         1.991760231000980    
    0.4764154299754906         1.967802101693058    
    0.4842255189914823         1.943890929336014    
    0.4920356080074739         1.920039251845322    
    0.4998456970234656         1.896259242662533    
    0.5076557860394573         1.872562701646119    
    0.5154658750554489         1.848961046881739    
    0.5232759640714405         1.825465307413962    
    0.5310860530874322         1.802086116898333    
    0.5388961421034238         1.778833708169682    
    0.5467062311194155         1.755717908719611    
    0.5545163201354072         1.732748137073202    
    0.5623264091513988         1.709933400052198    
    0.5701364981673904         1.687282290909237    
    0.5779465871833821         1.664802988315157    
    0.5857566761993738         1.642503256178937    
    0.5935667652153654         1.620390444277622    
    0.6013768542313570         1.598471489671358    
    0.6091869432473487         1.576752918876824    
    0.6169970322633404         1.555240850770465    
    0.6248071212793320         1.533941000191378    
    0.6326172102953237         1.512858682212276    
    0.6404272993113153         1.491998817045727    
    0.6482373883273069         1.471365935551839    
    0.6560474773432986         1.450964185312690    
    0.6638575663592903         1.430797337238218    
    0.6716676553752819         1.410868792667749    
    0.6794777443912735         1.391181590931149    
    0.6872878334072652         1.371738417333446    
    0.6950979224232569         1.352541611526901    
    0.7029080114392485         1.333593176234742    
    0.7107181004552402         1.314894786291236    
    0.7185281894712318         1.296447797963315    
    0.7263382784872234         1.278253258519757    
    0.7341483675032151         1.260311916014726    
    0.7419584565192068         1.242624229253485    
    0.7497685455351983         1.225190377132350    
    0.7575786345511900         1.208010265659220    
    0.7653887235671817         1.191083543785051    
    0.7731988125831734         1.174409612847744    
    0.7810089015991650         1.157987636669444    
    0.7888189906151566         1.141816551995866    
    0.7966290796311483         1.125895078928014    
    0.8044391686471399         1.110221731324816    
    0.8122492576631316         1.094794827156705    
    0.8200593466791233         1.079612498791675    
    0.8278694356951148         1.064672703196799    
    0.8356795247111065         1.049973232039672    
    0.8434896137270982         1.035511721675600    
    0.8512997027430899         1.021285663007773    
    0.8591097917590815         1.007292411208901    
    0.8669198807750731        0.9935291952940549    
    0.8747299697910648        0.9799931275356129    
    0.8825400588070564        0.9666812127122834    
    0.8903501478230481        0.9535903571851817    
    0.8981602368390398        0.9407173777948532    
    0.9059703258550313        0.9280590105739533    
    0.9137804148710230        0.9156119192710421    
    0.9215905038870147        0.9033727036815828    
    0.9294005929030064        0.8913379077828005    
    0.9372106819189980        0.8795040276695220    
    0.9450207709349896        0.8678675192885046    
    0.9528308599509813        0.8564248059690577    
    0.9606409489669729        0.8451722857479996    
    0.9684510379829646        0.8341063384871336    
    0.9762611269989563        0.8232233327815260    
    0.9840712160149478        0.8125196326568909    
    0.9918813050309395        0.8019916040543709    
    0.9996913940469312        0.7916356211009309    
     1.007501483062923        0.7814480721634725    
     1.015311572078915        0.7714253656846508    
     1.023121661094906        0.7615639357982121    
     1.030931750110898        0.7518602477214990    
     1.038741839126889        0.7423108029226043    
     1.046551928142881        0.7329121440594638    
     1.054362017158873        0.7236608596880338    
     1.062172106174864        0.7145535887365347    
     1.069982195190856        0.7055870247426305    
     1.077792284206848        0.6967579198503140    
     1.085602373222839        0.6880630885632181    
     1.093412462238831        0.6794994112510422    
     1.101222551254823        0.6710638374058312    
     1.109032640270814        0.6627533886449071    
     1.116842729286806        0.6545651614573923    
     1.124652818302798        0.6464963296914437    
     1.132462907318789        0.6385441467795679    
     1.140272996334781        0.6307059476996670    
     1.148083085350773        0.6229791506698438    
     1.155893174366764        0.6153612585753865    
     1.163703263382756        0.6078498601268223    
     1.171513352398748        0.6004426307484566    
     1.179323441414739        0.5931373331973582    
     1.187133530430731        0.5859318179133888    
     1.194943619446722        0.5788240231014994    
     1.202753708462714        0.5718119745482215    
     1.210563797478706        0.5648937851749848    
     1.218373886494697        0.5580676543316503    
     1.226183975510689        0.5513318668576551    
     1.233994064526681        0.5446847919646524    
     1.241804153542672        0.5381248812243855    
     1.249614242558664        0.5316506666710454    
     1.257424331574656        0.5252607619413276    
     1.265234420590647        0.5189538594793983    
     1.273044509606639        0.5127287160796897    
     1.280854598622631        0.5065841339007630    
     1.288664687638622        0.5005189432868749    
     1.296474776654614        0.4945319919770174    
     1.304284865670606        0.4886221447314650    
     1.312094954686597        0.4827882857161823    
     1.319905043702589        0.4770293178944644    
     1.327715132718581        0.4713441621320971    
     1.335525221734572        0.4657317569514636    
     1.343335310750564        0.4601910582295671    
     1.351145399766555        0.4547210388752939    
     1.358955488782547        0.4493206885128600    
     1.366765577798539        0.4439890131714995    
     1.374575666814530        0.4387250349815764    
     1.382385755830522        0.4335277918769656    
     1.390195844846514        0.4283963373035767    
     1.398005933862505        0.4233297399338728    
     1.405816022878497        0.4183270833872630    
     1.413626111894489        0.4133874659562286    
     1.421436200910480        0.4085100003380616    
     1.429246289926472        0.4036938133720903    
     1.437056378942464        0.3989380457822703    
     1.444866467958455        0.3942418519250220    
     1.452676556974447        0.3896043995422027    
     1.460486645990439        0.3850248695190912    
     1.468296735006430        0.3805024556472850    
     1.476106824022422        0.3760363643923962    
     1.483916913038414        0.3716258146664392    
     1.491727002054405        0.3672700376048125    
     1.499537091070397        0.3629682763477674    
     1.507347180086388        0.3587197858262713    
     1.515157269102380        0.3545238325521661    
     1.522967358118372        0.3503796944125253    
     1.530777447134363        0.3462866604681240    
     1.538587536150355        0.3422440307559266    
     1.546397625166347        0.3382511160955086    
     1.554207714182338        0.3343072378993227    
     1.562017803198330        0.3304117279867285    
     1.569827892214322        0.3265639284017048    
     1.577637981230313        0.3227631912341594    
     1.585448070246305        0.3190088784447656    
     1.593258159262297        0.3153003616932426    
     1.601068248278288        0.3116370221700096    
     1.608878337294280        0.3080182504311376    
     1.616688426310271        0.3044434462365316    
     1.624498515326263        0.3009120183912678    
     1.632308604342255        0.2974233845900254    
     1.640118693358247        0.2939769712645396    
     1.647928782374238        0.2905722134340152    
     1.655738871390230        0.2872085545584356    
     1.663548960406221        0.2838854463947045    
     1.671359049422213        0.2806023488555650    
     1.679169138438205        0.2773587298712285    
     1.686979227454196        0.2741540652536619    
     1.694789316470188        0.2709878385634750    
     1.702599405486180        0.2678595409793518    
     1.710409494502171        0.2647686711699746    
     1.718219583518163        0.2617147351683825    
     1.726029672534155        0.2586972462487191    
     1.733839761550146        0.2557157248053183    
     1.741649850566138        0.2527696982340713    
     1.749459939582130        0.2498587008160381    
     1.757270028598121        0.2469822736032489    
     1.765080117614113        0.2441399643066499    
     1.772890206630104        0.2413313271861523    
     1.780700295646096        0.2385559229427385    
     1.788510384662088        0.2358133186125814    
     1.796320473678080        0.2331030874631351    
     1.804130562694071        0.2304248088911617    
     1.811940651710063        0.2277780683226420    
     1.819750740726054        0.2251624571145460    
     1.827560829742046        0.2225775724584116    
     1.835370918758038        0.2200230172857025    
     1.843181007774029        0.2174984001749055    
     1.850991096790021        0.2150033352603306    
     1.858801185806013        0.2125374421425826    
     1.866611274822004        0.2101003458006654    
     1.874421363837996        0.2076916765056880    
     1.882231452853988        0.2053110697361419    
     1.890041541869979        0.2029581660947104    
     1.897851630885971        0.2006326112265898    
     1.905661719901963        0.1983340557392787    
     1.913471808917954        0.1960621551238186    
     1.921281897933946        0.1938165696774465    
     1.929091986949937        0.1915969644276363    
     1.936902075965929        0.1894030090574998    
     1.944712164981921        0.1872343778325190    
     1.952522253997913        0.1850907495285837    
     1.960332343013904        0.1829718073613106    
     1.968142432029896        0.1808772389166114    
     1.975952521045887        0.1788067360824947    
     1.983762610061879        0.1767599949820687    
     1.991572699077871        0.1747367159077249    
     1.999382788093862        0.1727366032564795    
     2.007192877109854        0.1707593654664480    
     2.015002966125846        0.1688047149544305    
     2.022813055141838        0.1668723680545895    
     2.030623144157829        0.1649620449581921    
     2.038433233173821        0.1630734696544025    
     2.046243322189812        0.1612063698720997    
     2.054053411205804        0.1593604770227016    
     2.061863500221796        0.1575355261439785    
     2.069673589237787        0.1557312558448297    
     2.077483678253779        0.1539474082510150    
     2.085293767269770        0.1521837289518104    
     2.093103856285762        0.1504399669475829    
     2.100913945301754        0.1487158745982538    
     2.108724034317746        0.1470112075726450    
     2.116534123333737        0.1453257247986828    
     2.124344212349729        0.1436591884144466    
     2.132154301365720        0.1420113637200469    
     2.139964390381712        0.1403820191303144    
     2.147774479397704        0.1387709261282857    
     2.155584568413695        0.1371778592194712    
     2.163394657429687        0.1356025958868903    
     2.171204746445679        0.1340449165468562    
     2.179014835461671        0.1325046045055024    
     2.186824924477662        0.1309814459160299    
     2.194635013493654        0.1294752297366667    
     2.202445102509645        0.1279857476893242    
     2.210255191525637        0.1265127942189359    
     2.218065280541629        0.1250561664534693    
     2.225875369557620        0.1236156641645965    
     2.233685458573612        0.1221910897290075    
     2.241495547589603        0.1207822480903632    
     2.249305636605595        0.1193889467218664    
     2.257115725621587        0.1180109955894465    
     2.264925814637579        0.1166482071155426    
     2.272735903653570        0.1153003961434751    
     2.280545992669562        0.1139673799023971    
     2.288356081685553        0.1126489779728090    
     2.296166170701545        0.1113450122526342    
     2.303976259717537        0.1100553069238392    
     2.311786348733528        0.1087796884195898    
     2.319596437749520        0.1075179853919351    
     2.327406526765512        0.1062700286800090    
     2.335216615781504        0.1050356512787393    
     2.343026704797495        0.1038146883080546    
     2.350836793813487        0.1026069769825814    
     2.358646882829478        0.1014123565818232    
     2.366456971845470        0.1002306684208100    
     2.374267060861462        0.9906175582121293E-01
     2.382077149877453        0.9790546408291280E-01
     2.389887238893445        0.9676164045601759E-01
     2.397697327909436        0.9563013411331819E-01
     2.405507416925428        0.9451079612317567E-01
     2.413317505941420        0.9340347942283286E-01
     2.421127594957412        0.9230803879214164E-01
     2.428937683973403        0.9122433082769964E-01
     2.436747772989395        0.9015221391738845E-01
     2.444557862005386        0.8909154821530631E-01
     2.452367951021378        0.8804219561708876E-01
     2.460178040037370        0.8700401973561046E-01
     2.467988129053361        0.8597688587706033E-01
     2.475798218069353        0.8496066101738535E-01
     2.483608307085345        0.8395521377909525E-01
     2.491418396101337        0.8296041440842189E-01
     2.499228485117328        0.8197613475282854E-01
     2.507038574133320        0.8100224823886060E-01
     2.514848663149311        0.8003862985033382E-01
     2.522658752165303        0.7908515610685460E-01
     2.530468841181295        0.7814170504266350E-01
     2.538278930197286        0.7720815618580040E-01
     2.546089019213278        0.7628439053758303E-01
     2.553899108229269        0.7537029055239491E-01
     2.561709197245261        0.7446574011777662E-01
     2.569519286261253        0.7357062453481558E-01
     2.577329375277245        0.7268483049882926E-01
     2.585139464293236        0.7180824608033709E-01
     2.592949553309228        0.7094076070631530E-01
     2.600759642325219        0.7008226514173110E-01
     2.608569731341211        0.6923265147135069E-01
     2.616379820357203        0.6839181308181662E-01
     2.624189909373194        0.6755964464399053E-01
     2.631999998389186        0.6673604209555507E-01
     2.639810087405178        0.6592090262387365E-01
     2.647620176421170        0.6511412464910113E-01
     2.655430265437161        0.6431560780754167E-01
     2.663240354453153        0.6352525293525123E-01
     2.671050443469144        0.6274296205187858E-01
     2.678860532485136        0.6196863834474260E-01
     2.686670621501128        0.6120218615314061E-01
     2.694480710517119        0.6044351095288487E-01
     2.702290799533111        0.5969251934106223E-01
     2.710100888549102        0.5894911902101646E-01
     2.717910977565094        0.5821321878754406E-01
     2.725721066581086        0.5748472851230586E-01
     2.733531155597078        0.5676355912944758E-01
     2.741341244613069        0.5604962262142599E-01
     2.749151333629061        0.5534283200503908E-01
     2.756961422645052        0.5464310131765509E-01
     2.764771511661044        0.5395034560363842E-01
     2.772581600677036        0.5326448090096868E-01
     2.780391689693027        0.5258542422804929E-01
     2.788201778709019        0.5191309357070436E-01
     2.796011867725011        0.5124740786935831E-01
     2.803821956741003        0.5058828700639680E-01
     2.811632045756994        0.4993565179370750E-01
     2.819442134772986        0.4928942396039329E-01
     2.827252223788977        0.4864952614065993E-01
     2.835062312804969        0.4801588186187424E-01
     2.842872401820961        0.4738841553278651E-01
     2.850682490836952        0.4676705243192009E-01
     2.858492579852944        0.4615171869612181E-01
     2.866302668868935        0.4554234130927086E-01
     2.874112757884927        0.4493884809114568E-01
     2.881922846900919        0.4434116768644453E-01
     2.889732935916911        0.4374922955395777E-01
     2.897543024932902        0.4316296395588964E-01
     2.905353113948894        0.4258230194732755E-01
     2.913163202964885        0.4200717536585570E-01
     2.920973291980877        0.4143751682131130E-01
     2.928783380996869        0.4087325968568142E-01
     2.936593470012860        0.4031433808313768E-01
     2.944403559028852        0.3976068688020676E-01
     2.952213648044844        0.3921224167607547E-01
     2.960023737060836        0.3866893879302655E-01
     2.967833826076827        0.3813071526700533E-01
     2.975643915092819        0.3759750883831348E-01
     2.983454004108810        0.3706925794242846E-01
     2.991264093124802        0.3654590170094713E-01
     2.999074182140793        0.3602737991265156E-01
     3.006884271156785        0.3551363304469394E-01
     3.014694360172777        0.3500460222390042E-01
     3.022504449188768        0.3450022922819217E-01
     3.030314538204760        0.3400045647811863E-01
     3.038124627220752        0.3350522702850618E-01
     3.045934716236744        0.3301448456021711E-01
     3.053744805252735        0.3252817337201715E-01
     3.061554894268727        0.3204623837255223E-01
     3.069364983284718        0.3156862507243081E-01
     3.077175072300710        0.3109527957641034E-01
     3.084985161316702        0.3062614857568731E-01
     3.092795250332693        0.3016117934028903E-01
     3.100605339348685        0.2970031971156413E-01
     3.108415428364677        0.2924351809477275E-01
     3.116225517380668        0.2879072345177293E-01
     3.124035606396660        0.2834188529380260E-01
     3.131845695412652        0.2789695367435596E-01
     3.139655784428643        0.2745587918215180E-01
     3.147465873444635        0.2701861293419386E-01
     3.155275962460626        0.2658510656892050E-01
     3.163086051476618        0.2615531223944300E-01
     3.170896140492610        0.2572918260687201E-01
     3.178706229508601        0.2530667083372783E-01
     3.186516318524593        0.2488773057743817E-01
     3.194326407540585        0.2447231598391655E-01
     3.202136496556577        0.2406038168122488E-01
     3.209946585572568        0.2365188277331627E-01
     3.217756674588560        0.2324677483385721E-01
     3.225566763604551        0.2284501390012923E-01
     3.233376852620543        0.2244655646700698E-01
     3.241186941636535        0.2205135948101343E-01
     3.248997030652526        0.2165938033445008E-01
     3.256807119668518        0.2127057685960052E-01
     3.264617208684510        0.2088490732300833E-01
     3.272427297700501        0.2050233041982517E-01
     3.280237386716493        0.2012280526823127E-01
     3.288047475732485        0.1974629140392524E-01
     3.295857564748476        0.1937274877468198E-01
     3.303667653764468        0.1900213773497952E-01
     3.311477742780459        0.1863441904069183E-01
     3.319287831796451        0.1826955384384787E-01
     3.327097920812443        0.1790750368745562E-01
     3.334908009828434        0.1754823050038916E-01
     3.342718098844426        0.1719169659234068E-01
     3.350528187860418        0.1683786464883206E-01
     3.358338276876410        0.1648669772628999E-01
     3.366148365892401        0.1613815924717982E-01
     3.373958454908393        0.1579221299519968E-01
     3.381768543924384        0.1544882311053275E-01
     3.389578632940376        0.1510795408515746E-01
     3.397388721956368        0.1476957075821487E-01
     3.405198810972359        0.1443363831143138E-01
     3.413008899988351        0.1410012226459761E-01
     3.420818989004343        0.1376898847110110E-01
     3.428629078020334        0.1344020311351311E-01
     3.436439167036326        0.1311373269922812E-01
     3.444249256052318        0.1278954405615547E-01
     3.452059345068309        0.1246760432846291E-01
     3.459869434084301        0.1214788097236979E-01
     3.467679523100292        0.1183034175199155E-01
     3.475489612116284        0.1151495473523247E-01
     3.483299701132276        0.1120168828972732E-01
     3.491109790148267        0.1089051107883082E-01
     3.498919879164259        0.1058139205765388E-01
     3.506729968180251        0.1027430046914739E-01
     3.514540057196243        0.9969205840230495E-02
     3.522350146212234        0.9666077977965011E-02
     3.530160235228226        0.9364886965774265E-02
     3.537970324244217        0.9065603161035879E-02
     3.545780413260209        0.8768197267467852E-02
     3.553590502276201        0.8472641258628929E-02
     3.561400591292192        0.8178912457735700E-02
     3.569210680308184        0.7887002482684263E-02
     3.577020769324176        0.7596929356941080E-02
     3.584830858340167        0.7308749070660521E-02
     3.592640947356159        0.7022563674578985E-02
     3.600451036372151        0.6738524806525433E-02
     3.608261125388142        0.6456832947621843E-02
     3.616071214404134        0.6177733372783918E-02
     3.623881303420125        0.5901509900690557E-02
     3.631691392436117        0.5628477421346967E-02
     3.639501481452109        0.5358973960308194E-02
     3.647311570468101        0.5093352818225254E-02
     3.655121659484092        0.4831975139096399E-02
     3.662931748500084        0.4575203118803790E-02
     3.670741837516076        0.4323393963418054E-02
     3.678551926532067        0.4076894636629425E-02
     3.686362015548059        0.3836037389609193E-02
     3.694172104564050        0.3601136037860926E-02
     3.701982193580042        0.3372482932943096E-02
     3.709792282596034        0.3150346568427830E-02
     3.717602371612025        0.2934969756315482E-02
     3.725412460628017        0.2726568310387309E-02
     3.733222549644009        0.2525330175296383E-02
     3.741032638660000        0.2331414943646607E-02
     3.748842727675992        0.2144953707260965E-02
     3.756652816691984        0.1966049192862782E-02
     3.764462905707975        0.1794776136170924E-02
     3.772272994723967        0.1631181851697790E-02
     3.780083083739958        0.1475286958080808E-02
     3.787893172755950        0.1327086220280011E-02
     3.795703261771942        0.1186549469978240E-02
     3.803513350787934        0.1053622563303925E-02
     3.811323439803925        0.9282283292721814E-03
     3.819133528819917        0.8102674507893409E-03
     3.826943617835909        0.6996191982563886E-03
     3.834753706851900        0.5961418949110027E-03
     3.842563795867892        0.4996729144017291E-03
     3.850373884883883        0.4100278525088727E-03
     3.858183973899875        0.3269981725727370E-03
     3.865994062915867        0.2503458137671728E-03
     3.873804151931858        0.1797910769277986E-03
     3.881614240947850        0.1149831281911207E-03
     3.889424329963842        0.5541280622156319E-04
     3.897234418979833         0.000000000000000    
  0  1  2  0  0.000000   #orbital l, n, z, is_polarized, population
 500    0.4705486485680888E-02     2.348037756354763     # npts, delta, cutoff
     0.000000000000000         3.758600488318443    
    0.4705486485680888E-02     3.758410275335287    
    0.9410972971361776E-02     3.757881163624238    
    0.1411645945704266E-01     3.756999528032170    
    0.1882194594272355E-01     3.755765657504275    
    0.2352743242840444E-01     3.754179965182955    
    0.2823291891408533E-01     3.752242983276580    
    0.3293840539976622E-01     3.749955362074806    
    0.3764389188544710E-01     3.747317869427353    
    0.4234937837112799E-01     3.744331390277198    
    0.4705486485680888E-01     3.740996926166484    
    0.5176035134248977E-01     3.737315594693026    
    0.5646583782817065E-01     3.733288628910216    
    0.6117132431385154E-01     3.728917376667702    
    0.6587681079953243E-01     3.724203299891924    
    0.7058229728521331E-01     3.719147973806268    
    0.7528778377089421E-01     3.713753086090821    
    0.7999327025657510E-01     3.708020435982062    
    0.8469875674225598E-01     3.701951933312742    
    0.8940424322793687E-01     3.695549597492345    
    0.9410972971361775E-01     3.688815556428643    
    0.9881521619929864E-01     3.681752045390735    
    0.1035207026849795         3.674361405814187    
    0.1082261891706604         3.666646084048814    
    0.1129316756563413         3.658608630049665    
    0.1176371621420222         3.650251696011943    
    0.1223426486277031         3.641578034950476    
    0.1270481351133840         3.632590499224473    
    0.1317536215990649         3.623292039008341    