<preamble>

<basis_specs>
===============================================================================
Hf                   Z=  72    Mass=  178.49        Charge= 0.17977+309
Lmxo=2 Lmxkb= 3    BasisType=split      Semic=T
L=0  Nsemic=1  Cnfigmx=6
          i=1  nzeta=1  polorb=0  (5s)  (semicore shell)
            splnorm:   0.15000    
               vcte:    40.000    
               rinn:    2.7711    
               qcoe:    0.0000    
               qyuk:    0.0000    
               qwid:   0.10000E-01
                rcs:    3.0759    
            lambdas:    1.0000    
          i=2  nzeta=2  polorb=0  (6s)  (to be polarized non-perturbatively)
            splnorm:   0.15000    
               vcte:    40.000    
               rinn:    6.7879    
               qcoe:    0.0000    
               qyuk:    0.0000    
               qwid:   0.10000E-01
                rcs:    7.5346      5.4740    
            lambdas:    1.0000      1.0000    
L=1  Nsemic=1  Cnfigmx=6
          i=1  nzeta=1  polorb=0  (5p)  (semicore shell)
            splnorm:   0.15000    
               vcte:    40.000    
               rinn:    3.3394    
               qcoe:    0.0000    
               qyuk:    0.0000    
               qwid:   0.10000E-01
                rcs:    3.7067    
            lambdas:    1.0000    
          i=2  nzeta=1  polorb=0  (6p)  (non-perturbative polarization shell)
            splnorm:   0.15000    
               vcte:    40.000    
               rinn:    6.7879    
               qcoe:    0.0000    
               qyuk:    0.0000    
               qwid:   0.10000E-01
                rcs:    7.5346    
            lambdas:    1.0000    
L=2  Nsemic=0  Cnfigmx=5
          i=1  nzeta=2  polorb=0  (5d)
            splnorm:   0.15000    
               vcte:    40.000    
               rinn:    6.4049    
               qcoe:    0.0000    
               qyuk:    0.0000    
               qwid:   0.10000E-01
                rcs:    7.1094      4.8685    
            lambdas:    1.0000      1.0000    
-------------------------------------------------------------------------------
L=0  Nkbl=2  erefs: 0.17977+309 0.17977+309
L=1  Nkbl=2  erefs: 0.17977+309 0.17977+309
L=2  Nkbl=1  erefs: 0.17977+309
L=3  Nkbl=1  erefs: 0.17977+309
===============================================================================
</basis_specs>

<pseudopotential_header>
 Hf pw nrl pcec
 ONCVPSP-3.2018-03-09Hamann's oncvpsp                        
 5s 2.00  r= 1.72/5p 6.00  r= 1.72/5d 2.00  r= 1.72/5f 0.00  r= 2.43/   5s:5p:5d:6s:
</pseudopotential_header>
</preamble>
Hf                            # Symbol
Hf                            # Label
   72                         # Atomic number
     12.0000000000                             # Valence charge
     178.490000000        # Mass 
     139.088731449        # Self energy 
   2   7                      # Lmax for basis, no. of nl orbitals 
   3   8                      # Lmax for projectors, no. of nl KB projectors
# PAOs:__________________________
  0  5  1  0  2.000000   #orbital l, n, z, is_polarized, population
 500    0.6164044554379432E-02     3.075858232635337     # npts, delta, cutoff
     0.000000000000000        0.7937040531029840    
    0.6164044554379432E-02    0.7937549362012730    
    0.1232808910875886E-01    0.7939550507356491    
    0.1849213366313830E-01    0.7942884358129867    
    0.2465617821751773E-01    0.7947548506378576    
    0.3082022277189716E-01    0.7953539660450600    
    0.3698426732627659E-01    0.7960853604291015    
    0.4314831188065602E-01    0.7969485194161018    
    0.4931235643503545E-01    0.7979428360586647    
    0.5547640098941489E-01    0.7990676111958162    
    0.6164044554379432E-01    0.8003220539062740    
    0.6780449009817374E-01    0.8017052820352799    
    0.7396853465255318E-01    0.8032163227882066    
    0.8013257920693262E-01    0.8048541133881369    
    0.8629662376131204E-01    0.8066175017959766    
    0.9246066831569147E-01    0.8085052474922257    
    0.9862471287007091E-01    0.8105160223197323    
    0.1047887574244503        0.8126484113868475    
    0.1109528019788298        0.8149009140304039    
    0.1171168465332092        0.8172719448379571    
    0.1232808910875886        0.8197598347286972    
    0.1294449356419681        0.8223628320923967    
    0.1356089801963475        0.8250791039857683    
    0.1417730247507269        0.8279067373855187    
    0.1479370693051064        0.8308437404973952    
    0.1541011138594858        0.8338880441204476    
    0.1602651584138652        0.8370375030657179    
    0.1664292029682446        0.8402898976285040    
    0.1725932475226241        0.8436429351133286    
    0.1787572920770035        0.8470942514106770    
    0.1849213366313829        0.8506414126245532    
    0.1910853811857624        0.8542819167498412    
    0.1972494257401418        0.8580131953984212    
    0.2034134702945213        0.8618326155729630    
    0.2095775148489007        0.8657374814872459    
    0.2157415594032801        0.8697250364318435    
    0.2219056039576595        0.8737924646839517    
    0.2280696485120390        0.8779368934600956    
    0.2342336930664184        0.8821553949104056    
    0.2403977376207978        0.8864449881531358    
    0.2465617821751773        0.8908026413480069    
    0.2527258267295567        0.8952252738069663    
    0.2588898712839361        0.8997097581408739    
    0.2650539158383156        0.9042529224406085    
    0.2712179603926950        0.9088515524910320    
    0.2773820049470744        0.9135023940162175    
    0.2835460495014538        0.9182021549543005    
    0.2897100940558333        0.9229475077602762    
    0.2958741386102127        0.9277350917350409    
    0.3020381831645921        0.9325615153788992    
    0.3082022277189716        0.9374233587677806    
    0.3143662722733510        0.9423171759503174    
    0.3205303168277305        0.9472394973639403    
    0.3266943613821099        0.9521868322680970    
    0.3328584059364893        0.9571556711926754    
    0.3390224504908688        0.9621424883996825    
    0.3451864950452482        0.9671437443561967    
    0.3513505395996276        0.9721558882165972    
    0.3575145841540071        0.9771753603120377    
    0.3636786287083865        0.9821985946451117    
    0.3698426732627659        0.9872220213876467    
    0.3760067178171453        0.9922420693795356    
    0.3821707623715248        0.9972551686264917    
    0.3883348069259042         1.002257752794626    
    0.3944988514802836         1.007246261699703    
    0.4006628960346630         1.012217143788943    
    0.4068269405890425         1.017166858613215    
    0.4129909851434219         1.022091879287502    
    0.4191550296978014         1.026988694937438    
    0.4253190742521808         1.031853813129820    
    0.4314831188065602         1.036683762284910    
    0.4376471633609397         1.041475094068413    
    0.4438112079153191         1.046224385760998    
    0.4499752524696985         1.050928242603228    
    0.4561392970240780         1.055583300113836    
    0.4623033415784574         1.060186226379223    
    0.4684673861328368         1.064733724312148    
    0.4746314306872162         1.069222533877555    
    0.4807954752415957         1.073649434283545    
    0.4869595197959751         1.078011246135494    
    0.4931235643503545         1.082304833551376    
    0.4992876089047339         1.086527106236392    
    0.5054516534591134         1.090675021515027    
    0.5116156980134928         1.094745586318679    
    0.5177797425678723         1.098735859127124    
    0.5239437871222516         1.102642951862026    
    0.5301078316766311         1.106464031730833    
    0.5362718762310106         1.110196323019410    
    0.5424359207853899         1.113837108831838    
    0.5485999653397694         1.117383732775830    
    0.5547640098941489         1.120833600592317    
    0.5609280544485283         1.124184181727805    
    0.5670920990029077         1.127433010848151    
    0.5732561435572872         1.130577689292474    
    0.5794201881116666         1.133615886466040    
    0.5855842326660460         1.136545341170940    
    0.5917482772204254         1.139363862873524    
    0.5979123217748049         1.142069332907604    
    0.6040763663291843         1.144659705612505    
    0.6102404108835637         1.147133009405139    
    0.6164044554379432         1.149487347785335    
    0.6225684999923226         1.151720900273764    
    0.6287325445467020         1.153831923281838    
    0.6348965891010815         1.155818750913104    
    0.6410606336554610         1.157679795695659    
    0.6472246782098403         1.159413549245280    
    0.6533887227642198         1.161018582858957    
    0.6595527673185992         1.162493548038690    
    0.6657168118729786         1.163837176945421    
    0.6718808564273581         1.165048282783097    
    0.6780449009817375         1.166125760112942    
    0.6842089455361169         1.167068585098056    
    0.6903729900904964         1.167875815678634    
    0.6965370346448758         1.168546591678056    
    0.7027010791992552         1.169080134840299    
    0.7088651237536346         1.169475748799123    
    0.7150291683080141         1.169732818979599    
    0.7211932128623935         1.169850812432614    
    0.7273572574167729         1.169829277603069    
    0.7335213019711524         1.169667844032562    
    0.7396853465255318         1.169366221997407    
    0.7458493910799112         1.168924202082954    
    0.7520134356342907         1.168341654695182    
    0.7581774801886701         1.167618529510664    
    0.7643415247430495         1.166754854866037    
    0.7705055692974290         1.165750737088186    
    0.7766696138518084         1.164606359766401    
    0.7828336584061878         1.163321982967842    
    0.7889977029605673         1.161897942397697    
    0.7951617475149467         1.160334648505454    
    0.8013257920693261         1.158632585538799    
    0.8074898366237055         1.156792310546653    
    0.8136538811780850         1.154814452332961    
    0.8198179257324644         1.152699710362822    
    0.8259819702868438         1.150448853622659    
    0.8321460148412233         1.148062719436104    
    0.8383100593956028         1.145542212237370    
    0.8444741039499821         1.142888302303829    
    0.8506381485043616         1.140102024449644    
    0.8568021930587411         1.137184476682215    
    0.8629662376131204         1.134136818823347    
    0.8691302821674999         1.130960271096931    
    0.8752943267218793         1.127656112685064    
    0.8814583712762587         1.124225680254453    
    0.8876224158306382         1.120670366455035    
    0.8937864603850176         1.116991618392667    
    0.8999505049393970         1.113190936080943    
    0.9061145494937765         1.109269871629991    
    0.9122785940481559         1.105230025505616    
    0.9184426386025353         1.101073046741948    
    0.9246066831569147         1.096800631041344    
    0.9307707277112942         1.092414518960502    
    0.9369347722656736         1.087916494254791    
    0.9430988168200530         1.083308382211699    
    0.9492628613744325         1.078592047975211    
    0.9554269059288120         1.073769394862899    
    0.9615909504831913         1.068842362677505    
    0.9677549950375708         1.063812926014727    
    0.9739190395919503         1.058683092568943    
    0.9800830841463296         1.053454901438529    
    0.9862471287007091         1.048130421432418    
    0.9924111732550885         1.042711749379491    
    0.9985752178094679         1.037201008442389    
     1.004739262363847         1.031600346437231    
     1.010903306918227         1.025911934160775    
     1.017067351472606         1.020137963726403    
     1.023231396026986         1.014280646910372    
     1.029395440581365         1.008342213509649    
     1.035559485135745         1.002324909712664    
     1.041723529690124        0.9962309964841972    
     1.047887574244503        0.9900627479656424    
     1.054051618798883        0.9838224498917834    
     1.060215663353262        0.9775123980251977    
     1.066379707907642        0.9711348966093398    
     1.072543752462021        0.9646922568413152    
     1.078707797016401        0.9581867953652957    
     1.084871841570780        0.9516208327874787    
     1.091035886125159        0.9449966922134438    
     1.097199930679539        0.9383166978087116    
     1.103363975233918        0.9315831733832435    
     1.109528019788298        0.9247984410005951    
     1.115692064342677        0.9179648196123605    
     1.121856108897057        0.9110846237185140    
     1.128020153451436        0.9041601620541978    
     1.134184198005815        0.8971937363034543    
     1.140348242560195        0.8901876398403586    
     1.146512287114574        0.8831441564979652    
     1.152676331668954        0.8760655593654162    
     1.158840376223333        0.8689541096135451    
     1.165004420777713        0.8618120553492349    
     1.171168465332092        0.8546416304987708    
     1.177332509886472        0.8474450537203755    
     1.183496554440851        0.8402245273460754    
     1.189660598995230        0.8329822363530101    
     1.195824643549610        0.8257203473642635    
     1.201988688103989        0.8184410076792510    
     1.208152732658369        0.8111463443336665    
     1.214316777212748        0.8038384631889719    
     1.220480821767127        0.7965194480513564    
     1.226644866321507        0.7891913598200871    
     1.232808910875886        0.7818562356651301    
     1.238972955430266        0.7745160882339023    
     1.245136999984645        0.7671729048869866    
     1.251301044539025        0.7598286469626121    
     1.257465089093404        0.7524852490697015    
     1.263629133647783        0.7451446184092355    
     1.269793178202163        0.7378086341237000    
     1.275957222756542        0.7304791466743369    
     1.282121267310922        0.7231579772459149    
     1.288285311865301        0.7158469171787345    
     1.294449356419681        0.7085477274275360    
     1.300613400974060        0.7012621380470092    
     1.306777445528440        0.6939918477035660    
     1.312941490082819        0.6867385232130262    
     1.319105534637198        0.6795037991038866    
     1.325269579191578        0.6722892772058060    
     1.331433623745957        0.6650965262629530    
     1.337597668300337        0.6579270815718604    
     1.343761712854716        0.6507824446434096    
     1.349925757409095        0.6436640828885895    
     1.356089801963475        0.6365734293276567    
     1.362253846517854        0.6295118823223393    
     1.368417891072234        0.6224808053306996    
     1.374581935626613        0.6154815266843182    
     1.380745980180993        0.6085153393874193    
     1.386910024735372        0.6015835009375818    
     1.393074069289752        0.5946872331676937    
     1.399238113844131        0.5878277221087853    
     1.405402158398510        0.5810061178734020    
     1.411566202952890        0.5742235345591844    
     1.417730247507269        0.5674810501723097    
     1.423894292061649        0.5607797065704673    
     1.430058336616028        0.5541205094250584    
     1.436222381170408        0.5475044282022892    
     1.442386425724787        0.5409323961628484    
     1.448550470279167        0.5344053103798840    
     1.454714514833546        0.5279240317749487    
     1.460878559387925        0.5214893851716599    
     1.467042603942305        0.5151021593667576    
     1.473206648496684        0.5087631072183071    
     1.479370693051064        0.5024729457507540    
     1.485534737605443        0.4962323562765698    
     1.491698782159822        0.4900419845342411    
     1.497862826714202        0.4839024408423157    
     1.504026871268581        0.4778143002692907    
     1.510190915822961        0.4717781028190520    
     1.516354960377340        0.4657943536316708    
     1.522519004931720        0.4598635231992681    
     1.528683049486099        0.4539860475966734    
     1.534847094040479        0.4481623285112027    
     1.541011138594858        0.4423927329343266    
     1.547175183149237        0.4366775946463292    
     1.553339227703617        0.4310172141552714    
     1.559503272257996        0.4254118589487487    
     1.565667316812376        0.4198617638080404    
     1.571831361366755        0.4143671311355130    
     1.577995405921135        0.4089281312950661    
     1.584159450475514        0.4035449029653687    
     1.590323495029893        0.3982175535056954    
     1.596487539584273        0.3929461593340857    
     1.602651584138652        0.3877307663176431    
     1.608815628693032        0.3825713901746983    
     1.614979673247411        0.3774680168886322    
     1.621143717801790        0.3724206031330891    
     1.627307762356170        0.3674290767083619    
     1.633471806910549        0.3624933369886873    
     1.639635851464929        0.3576132553801921    
     1.645799896019308        0.3527886757892605    
     1.651963940573688        0.3480194151010321    
     1.658127985128067        0.3433052636655166    
     1.664292029682447        0.3386459857150101    
     1.670456074236826        0.3340413199075055    
     1.676620118791206        0.3294909800646056    
     1.682784163345585        0.3249946559257936    
     1.688948207899964        0.3205520136868872    
     1.695112252454344        0.3161626953842002    
     1.701276297008723        0.3118263188306793    
     1.707440341563103        0.3075424781072771    
     1.713604386117482        0.3033107464834371    
     1.719768430671861        0.2991306801480008    
     1.725932475226241        0.2950018221705522    
     1.732096519780620        0.2909237066415178    
     1.738260564335000        0.2868958625479905    
     1.744424608889379        0.2829178172557303    
     1.750588653443759        0.2789890987502975    
     1.756752697998138        0.2751092355112463    
     1.762916742552517        0.2712777560861955    
     1.769080787106897        0.2674941881871220    
     1.775244831661276        0.2637580589753468    
     1.781408876215656        0.2600688954830758    
     1.787572920770035        0.2564262249985972    
     1.793736965324415        0.2528295753409450    
     1.799901009878794        0.2492784749445904    
     1.806065054433174        0.2457724530233014    
     1.812229098987553        0.2423110397318300    
     1.818393143541932        0.2388937663226056    
     1.824557188096312        0.2355201652949439    
     1.830721232650691        0.2321897705369965    
     1.836885277205071        0.2289021174610007    
     1.843049321759450        0.2256567431320734    
     1.849213366313829        0.2224531863907641    
     1.855377410868209        0.2192909879695789    
     1.861541455422588        0.2161696906036925    
     1.867705499976968        0.2130888391360430    
     1.873869544531347        0.2100479806170097    
     1.880033589085727        0.2070466643988635    
     1.886197633640106        0.2040844422251721    
     1.892361678194486        0.2011608683153379    
     1.898525722748865        0.1982754994444448    
     1.904689767303244        0.1954278950185765    
     1.910853811857624        0.1926176171457712    
     1.917017856412003        0.1898442307027698    
     1.923181900966383        0.1871073033977055    
     1.929345945520762        0.1844064058288871    
     1.935509990075142        0.1817411115398164    
     1.941674034629521        0.1791109970705743    
     1.947838079183901        0.1765156420057147    
     1.954002123738280        0.1739546290187920    
     1.960166168292659        0.1714275439136466    
     1.966330212847039        0.1689339756625728    
     1.972494257401418        0.1664735164414830    
     1.978658301955798        0.1640457616621843    
     1.984822346510177        0.1616503100018726    
     1.990986391064556        0.1592867634299583    
     1.997150435618936        0.1569547272323184    
     2.003314480173315        0.1546538100330786    
     2.009478524727695        0.1523836238140234    
     2.015642569282074        0.1501437839317183    
     2.021806613836453        0.1479339091324482    
     2.027970658390833        0.1457536215650456    
     2.034134702945213        0.1436025467917014    
     2.040298747499592        0.1414803137968364    
     2.046462792053971        0.1393865549941122    
     2.052626836608351        0.1373209062316582    
     2.058790881162730        0.1352830067955912    
     2.064954925717110        0.1332724994118895    
     2.071118970271489        0.1312890302467052    
     2.077283014825869        0.1293322489051650    
     2.083447059380248        0.1274018084287374    
     2.089611103934627        0.1254973652912201    
     2.095775148489007        0.1236185793934090    
     2.101939193043386        0.1217651140565108    
     2.108103237597766        0.1199366360143527    
     2.114267282152145        0.1181328154044378    
     2.120431326706524        0.1163533257579106    
     2.126595371260904        0.1145978439884730    
     2.132759415815283        0.1128660503803030    
     2.138923460369663        0.1111576285750240    
     2.145087504924042        0.1094722655577691    
     2.151251549478422        0.1078096516423846    
     2.157415594032801        0.1061694804558155    
     2.163579638587180        0.1045514489217126    
     2.169743683141560        0.1029552572433034    
     2.175907727695940        0.1013806088855609    
     2.182071772250319        0.9982721055671147E-01
     2.188235816804698        0.9829477218911460E-01
     2.194399861359078        0.9678300691954771E-01
     2.200563905913457        0.9529163106893257E-01
     2.206727950467837        0.9382036412153298E-01
     2.212891995022216        0.9236892870365344E-01
     2.219056039576595        0.9093705056186988E-01
     2.225220084130975        0.8952445854082160E-01
     2.231384128685354        0.8813088456058951E-01
     2.237548173239734        0.8675606359368954E-01
     2.243712217794113        0.8539973364170467E-01
     2.249876262348493        0.8406163571158189E-01
     2.256040306902872        0.8274151379161636E-01
     2.262204351457251        0.8143911482714628E-01
     2.268368396011631        0.8015418869598032E-01
     2.274532440566010        0.7888648818357757E-01
     2.280696485120390        0.7763576895800282E-01
     2.286860529674769        0.7640178954467307E-01
     2.293024574229149        0.7518431130091771E-01
     2.299188618783528        0.7398309839036714E-01
     2.305352663337907        0.7279791775718938E-01
     2.311516707892287        0.7162853910019076E-01
     2.317680752446666        0.7047473484679528E-01
     2.323844797001046        0.6933628012692068E-01
     2.330008841555425        0.6821295274676280E-01
     2.336172886109805        0.6710453316250435E-01
     2.342336930664184        0.6601080445396235E-01
     2.348500975218563        0.6493155229818370E-01
     2.354665019772943        0.6386656494300585E-01
     2.360829064327322        0.6281563318059140E-01
     2.366993108881702        0.6177855032094810E-01
     2.373157153436081        0.6075511216544728E-01
     2.379321197990460        0.5974511698034941E-01
     2.385485242544840        0.5874836547034689E-01
     2.391649287099220        0.5776466075213440E-01
     2.397813331653599        0.5679380832801532E-01
     2.403977376207978        0.5583561605955253E-01
     2.410141420762358        0.5488989414127406E-01
     2.416305465316737        0.5395645507443795E-01
     2.422469509871117        0.5303511364086658E-01
     2.428633554425496        0.5212568687685863E-01
     2.434797598979876        0.5122799404718020E-01
     2.440961643534255        0.5034185661914806E-01
     2.447125688088634        0.4946709823680852E-01
     2.453289732643014        0.4860354469521429E-01
     2.459453777197393        0.4775102391481284E-01
     2.465617821751773        0.4690936591594247E-01
     2.471781866306152        0.4607840279344842E-01
     2.477945910860532        0.4525796869142013E-01
     2.484109955414911        0.4444789977805333E-01
     2.490273999969290        0.4364803422064464E-01
     2.496438044523670        0.4285821216071896E-01
     2.502602089078049        0.4207827568929606E-01
     2.508766133632429        0.4130806882229746E-01
     2.514930178186808        0.4054743747609912E-01
     2.521094222741187        0.3979622944323212E-01
     2.527258267295567        0.3905429436823307E-01
     2.533422311849947        0.3832148372364794E-01
     2.539586356404326        0.3759765078619367E-01
     2.545750400958705        0.3688265061307393E-01
     2.551914445513085        0.3617634001845887E-01
     2.558078490067464        0.3547857755012475E-01
     2.564242534621844        0.3478922346625758E-01
     2.570406579176223        0.3410813971242282E-01
     2.576570623730603        0.3343518989870074E-01
     2.582734668284982        0.3277023927699118E-01
     2.588898712839361        0.3211315471848627E-01
     2.595062757393741        0.3146380469131377E-01
     2.601226801948120        0.3082205923835256E-01
     2.607390846502500        0.3018778995521811E-01
     2.613554891056879        0.2956086996842178E-01
     2.619718935611258        0.2894117391370277E-01
     2.625882980165638        0.2832857791453301E-01
     2.632047024720017        0.2772295956079660E-01
     2.638211069274397        0.2712419788764187E-01
     2.644375113828776        0.2653217335450923E-01
     2.650539158383156        0.2594676782433020E-01
     2.656703202937535        0.2536786454290332E-01
     2.662867247491914        0.2479534811844177E-01
     2.669031292046294        0.2422910450129461E-01
     2.675195336600674        0.2366902096384187E-01
     2.681359381155053        0.2311498608056115E-01
     2.687523425709432        0.2256688970826705E-01
     2.693687470263812        0.2202462296652169E-01
     2.699851514818191        0.2148807821821595E-01
     2.706015559372570        0.2095714905032220E-01
     2.712179603926950        0.2043173025481403E-01
     2.718343648481329        0.1991171780975683E-01
     2.724507693035709        0.1939700886056411E-01
     2.730671737590088        0.1888750170142205E-01
     2.736835782144468        0.1838309575687859E-01
     2.742999826698847        0.1788369156359784E-01
     2.749163871253227        0.1738919075227807E-01
     2.755327915807606        0.1689949602973150E-01
     2.761491960361985        0.1641451116112596E-01
     2.767656004916365        0.1593414095238570E-01
     2.773820049470744        0.1545829123275249E-01
     2.779984094025124        0.1498686883750158E-01
     2.786148138579503        0.1451978159081747E-01
     2.792312183133883        0.1405693829044746E-01
     2.798476227688262        0.1359824878389462E-01
     2.804640272242641        0.1314362508600785E-01
     2.810804316797021        0.1269298636180257E-01
     2.816968361351400        0.1224626987817772E-01
     2.823132405905780        0.1180344586558883E-01
     2.829296450460159        0.1136453176151869E-01
     2.835460495014539        0.1092960227496150E-01
     2.841624539568918        0.1049879392447301E-01
     2.847788584123297        0.1007230440397077E-01
     2.853952628677677        0.9650387942624730E-02
     2.860116673232056        0.9233347995165760E-02
     2.866280717786436        0.8821528443510663E-02
     2.872444762340815        0.8415304223816866E-02
     2.878608806895194        0.8015072025370313E-02
     2.884772851449574        0.7621241483286987E-02
     2.890936896003954        0.7234227115864304E-02
     2.897100940558333        0.6854441134725952E-02
     2.903264985112712        0.6482287172150160E-02
     2.909429029667092        0.6118154915393942E-02
     2.915593074221471        0.5762415604164903E-02
     2.921757118775850        0.5415418328213663E-02
     2.927921163330230        0.5077487052571688E-02
     2.934085207884610        0.4748918294847259E-02
     2.940249252438989        0.4429979379830066E-02
     2.946413296993368        0.4120907199823023E-02
     2.952577341547748        0.3821907413488362E-02
     2.958741386102127        0.3533154020830663E-02
     2.964905430656507        0.3254789256695628E-02
     2.971069475210886        0.2986923749475756E-02
     2.977233519765266        0.2729636895232805E-02
     2.983397564319645        0.2482977399856840E-02
     2.989561608874024        0.2246963942701874E-02
     2.995725653428404        0.2021585913720205E-02
     3.001889697982783        0.1806804171305375E-02
     3.008053742537163        0.1602551757900145E-02
     3.014217787091542        0.1408734491329139E-02
     3.020381831645921        0.1225231314998298E-02
     3.026545876200301        0.1051894226031277E-02
     3.032709920754681        0.8885474786509164E-03
     3.038873965309060        0.7349855165084151E-03
     3.045038009863439        0.5909685649351564E-03
     3.051202054417819        0.4562135829844133E-03
     3.057366098972198        0.3303749877292168E-03
     3.063530143526577        0.2129990693371456E-03
     3.069694188080957        0.1033916204568573E-03
     3.075858232635337         0.000000000000000    
  0  6  1  0  2.000000   #orbital l, n, z, is_polarized, population
 500    0.1509936460410564E-01     7.534582937448712     # npts, delta, cutoff
     0.000000000000000        0.4552339043881499    
    0.1509936460410564E-01    0.4553766334106123    