<preamble>

<basis_specs>
===============================================================================
In                   Z=  49    Mass=  114.82        Charge= 0.17977+309
Lmxo=2 Lmxkb= 2    BasisType=split      Semic=T
L=0  Nsemic=0  Cnfigmx=5
          i=1  nzeta=2  polorb=0  (5s)
            splnorm:   0.15000    
               vcte:    40.000    
               rinn:    5.8295    
               qcoe:    0.0000    
               qyuk:    0.0000    
               qwid:   0.10000E-01
                rcs:    6.4707      4.5798    
            lambdas:    1.0000      1.0000    
L=1  Nsemic=0  Cnfigmx=5
          i=1  nzeta=2  polorb=0  (5p)  (to be polarized non-perturbatively)
            splnorm:   0.15000    
               vcte:    40.000    
               rinn:    7.9434    
               qcoe:    0.0000    
               qyuk:    0.0000    
               qwid:   0.10000E-01
                rcs:    8.8260      6.4062    
            lambdas:    1.0000      1.0000    
L=2  Nsemic=1  Cnfigmx=5
          i=1  nzeta=1  polorb=0  (4d)  (semicore shell)
            splnorm:   0.15000    
               vcte:    40.000    
               rinn:    3.4482    
               qcoe:    0.0000    
               qyuk:    0.0000    
               qwid:   0.10000E-01
                rcs:    3.8275    
            lambdas:    1.0000    
          i=2  nzeta=1  polorb=0  (5d)  (non-perturbative polarization shell)
            splnorm:   0.15000    
               vcte:    40.000    
               rinn:    7.9513    
               qcoe:    0.0000    
               qyuk:    0.0000    
               qwid:   0.10000E-01
                rcs:    8.8260    
            lambdas:    1.0000    
-------------------------------------------------------------------------------
L=0  Nkbl=1  erefs: 0.17977+309
L=1  Nkbl=1  erefs: 0.17977+309
L=2  Nkbl=2  erefs: 0.17977+309 0.17977+309
===============================================================================
</basis_specs>

<pseudopotential_header>
 In pw nrl pcec
 ONCVPSP-3.2018-03-09Hamann's oncvpsp                        
 5s 2.00  r= 2.21/5p 1.00  r= 2.38/4d10.00  r= 1.87/                    4d:5s:5p:
</pseudopotential_header>
</preamble>
In                            # Symbol
In                            # Label
   49                         # Atomic number
     13.0000000000                             # Valence charge
     114.820000000        # Mass 
     162.035584863        # Self energy 
   2   6                      # Lmax for basis, no. of nl orbitals 
   2   6                      # Lmax for projectors, no. of nl KB projectors
# PAOs:__________________________
  0  5  1  0  2.000000   #orbital l, n, z, is_polarized, population
 500    0.1296735135540658E-01     6.470708326347883     # npts, delta, cutoff
     0.000000000000000        0.4854791616772990E-01
    0.1296735135540658E-01    0.4862123034903757E-01
    0.2593470271081316E-01    0.4884409233483576E-01
    0.3890205406621974E-01    0.4921475721187169E-01
    0.5186940542162632E-01    0.4973207131777015E-01
    0.6483675677703289E-01    0.5039442972559800E-01
    0.7780410813243947E-01    0.5119978598028694E-01
    0.9077145948784605E-01    0.5214566465017102E-01
    0.1037388108432526        0.5322917650261536E-01
    0.1167061621986592        0.5444703618437225E-01
    0.1296735135540658        0.5579558227867039E-01
    0.1426408649094724        0.5727079959600503E-01
    0.1556082162648789        0.5886834354041420E-01
    0.1685755676202855        0.6058356637876022E-01
    0.1815429189756921        0.6241154522749288E-01
    0.1945102703310987        0.6434711155969246E-01
    0.2074776216865053        0.6638488202498942E-01
    0.2204449730419119        0.6851929036629446E-01
    0.2334123243973184        0.7074462021023137E-01
    0.2463796757527250        0.7305503850277702E-01
    0.2593470271081316        0.7544462935792548E-01
    0.2723143784635382        0.7790742808522691E-01
    0.2852817298189447        0.8043745516181591E-01
    0.2982490811743513        0.8302874991603523E-01
    0.3112164325297579        0.8567540369295866E-01
    0.3241837838851645        0.8837159227700059E-01
    0.3371511352405711        0.9111160735330857E-01
    0.3501184865959777        0.9388988679773340E-01
    0.3630858379513842        0.9670104359476762E-01
    0.3760531893067908        0.9953989319388284E-01
    0.3890205406621974        0.1024014791270588    
    0.4019878920176040        0.1052810967239137    
    0.4149552433730105        0.1081743147755734    
    0.4279225947284171        0.1110769950141664    
    0.4408899460838237        0.1139853092914545    
    0.4538572974392303        0.1168957543574911    
    0.4668246487946369        0.1198051641581843    
    0.4797920001500434        0.1227107195891145    
    0.4927593515054500        0.1256099556617412    
    0.5057267028608566        0.1285007660571182    
    0.5186940542162631        0.1313814050612442    
    0.5316614055716697        0.1342504868950884    
    0.5446287569270764        0.1371069824709842    
    0.5575961082824830        0.1399502136253482    
    0.5705634596378895        0.1427798448954252    
    0.5835308109932961        0.1455958729248314    
    0.5964981623487027        0.1483986135989739    
    0.6094655137041093        0.1511886870268138    
    0.6224328650595158        0.1539670004998333    
    0.6354002164149224        0.1567347295723415    
    0.6483675677703290        0.1594932974193221    
    0.6613349191257355        0.1622443526388347    
    0.6743022704811421        0.1649897456754021    
    0.6872696218365487        0.1677315040488651    
    0.7002369731919553        0.1704718065797460    
    0.7132043245473618        0.1732129568072490    
    0.7261716759027684        0.1759573557995905    
    0.7391390272581750        0.1787074745583916    
    0.7521063786135816        0.1814658262193770    
    0.7650737299689881        0.1842349382506458    
    0.7780410813243948        0.1870173248472738    
    0.7910084326798014        0.1898154597171097    
    0.8039757840352080        0.1926317494472806    
    0.8169431353906145        0.1954685076342589    
    0.8299104867460211        0.1983279299524083    
    0.8428778381014277        0.2012120703267805    
    0.8558451894568342        0.2041228183656985    
    0.8688125408122408        0.2070618781973979    
    0.8817798921676474        0.2100307488428183    
    0.8947472435230540        0.2130307062436752    
    0.9077145948784605        0.2160627870512407    
    0.9206819462338671        0.2191277742670290    
    0.9336492975892737        0.2222261848118503    
    0.9466166489446803        0.2253582590846495    
    0.9595840003000868        0.2285239525572721    
    0.9725513516554934        0.2317229294359180    
    0.9855187030109001        0.2349545584047153    
    0.9984860543663067        0.2382179104516290    
     1.011453405721713        0.2415117587619787    
     1.024420757077120        0.2448345806502690    
     1.037388108432526        0.2481845614869371    
     1.050355459787933        0.2515596005630971    
     1.063322811143339        0.2549573188235333    
     1.076290162498746        0.2583750683860921    
     1.089257513854153        0.2618099437543957    
     1.102224865209559        0.2652587946204719    
     1.115192216564966        0.2687182401445412    
     1.128159567920372        0.2721846845908933    
     1.141126919275779        0.2756543341915437    
     1.154094270631186        0.2791232151032299    
     1.167061621986592        0.2825871923183289    
     1.180028973341999        0.2860419893864390    
     1.192996324697405        0.2894832088006912    
     1.205963676052812        0.2929063529013491    
     1.218931027408219        0.2963068451488758    
     1.231898378763625        0.2996800516194016    
     1.244865730119032        0.3030213025773638    
     1.257833081474438        0.3063259139829826    
     1.270800432829845        0.3095892087961420    
     1.283767784185251        0.3128065379430722    
     1.296735135540658        0.3159733008179995    
     1.309702486896064        0.3190849651984495    
     1.322669838251471        0.3221370864602335    
     1.335637189606878        0.3251253259860978    
     1.348604540962284        0.3280454686706050    
     1.361571892317691        0.3308934394328828    
     1.374539243673097        0.3336653186583793    
     1.387506595028504        0.3363573565005810    
     1.400473946383911        0.3389659859837376    
     1.413441297739317        0.3414878348578415    
     1.426408649094724        0.3439197361674275    
     1.439376000450130        0.3462587375060077    
     1.452343351805537        0.3485021089381405    
     1.465310703160943        0.3506473495811204    
     1.478278054516350        0.3526921928479862    
     1.491245405871757        0.3546346103629582    
     1.504212757227163        0.3564728145101838    
     1.517180108582570        0.3582052564518661    
     1.530147459937976        0.3598306278560688    
     1.543114811293383        0.3613478624963241    
     1.556082162648790        0.3627561333092443    
     1.569049514004196        0.3640548490421775    
     1.582016865359603        0.3652436498721874    
     1.594984216715009        0.3663224020637842    
     1.607951568070416        0.3672911917368712    
     1.620918919425822        0.3681503178197357    
     1.633886270781229        0.3689002842645149    
     1.646853622136636        0.3695417916044711    
     1.659820973492042        0.3700757279335600    
     1.672788324847449        0.3705031593892581    
     1.685755676202855        0.3708253202193819    
     1.698723027558262        0.3710436025127784    
     1.711690378913668        0.3711595456722768    
     1.724657730269075        0.3711748257062276    
     1.737625081624482        0.3710912444123641    
     1.750592432979888        0.3709107185246270    
     1.763559784335295        0.3706352688900656    
     1.776527135690701        0.3702670097390210    
     1.789494487046108        0.3698081381075410    
     1.802461838401515        0.3692609234664488    
     1.815429189756921        0.3686276976067426    
     1.828396541112328        0.3679108448260798    
     1.841363892467734        0.3671127924560786    
     1.854331243823141        0.3662360017650800    
     1.867298595178547        0.3652829592659259    
     1.880265946533954        0.3642561684533207    
     1.893233297889361        0.3631581419902717    
     1.906200649244767        0.3619913943585176    
     1.919168000600174        0.3607584354220202    
     1.932135351955580        0.3594617635761470    
     1.945102703310987        0.3581038585448844    
     1.958070054666393        0.3566871781332592    
     1.971037406021800        0.3552141523820926    
     1.984004757377207        0.3536871790729365    
     1.996972108732613        0.3521086196848015    
     2.009939460088020        0.3504807957898272    
     2.022906811443427        0.3488059858716445    
     2.035874162798833        0.3470864225484597    
     2.048841514154240        0.3453242901815491    
     2.061808865509646        0.3435217228488787    
     2.074776216865053        0.3416808026629464    
     2.087743568220459        0.3398035584116627    
     2.100710919575866        0.3378919645011419    
     2.113678270931272        0.3359479401796088    
     2.126645622286679        0.3339733490222637    
     2.139612973642086        0.3319699986577872    
     2.152580324997492        0.3299396407178531    
     2.165547676352899        0.3278839709945856    
     2.178515027708305        0.3258046297893433    
     2.191482379063712        0.3237032024346915    
     2.204449730419118        0.3215812199875225    
     2.217417081774525        0.3194401600642526    
     2.230384433129932        0.3172814478341358    
     2.243351784485338        0.3151064573235063    
     2.256319135840745        0.3129165129997208    
     2.269286487196152        0.3107128913478741    
     2.282253838551558        0.3084968223366368    
     2.295221189906965        0.3062694908571799    
     2.308188541262371        0.3040320381414902    
     2.321155892617778        0.3017855631367166    
     2.334123243973184        0.2995311238392119    
     2.347090595328591        0.2972697385895599    
     2.360057946683997        0.2950023873305659    
     2.373025298039404        0.2927300128285062    
     2.385992649394811        0.2904535218585346    
     2.398960000750217        0.2881737863551656    
     2.411927352105624        0.2858916445287016    
     2.424894703461030        0.2836079019484735    
     2.437862054816437        0.2813233325937459    
     2.450829406171843        0.2790386798731324    
     2.463796757527250        0.2767546576133563    
     2.476764108882657        0.2744719510181771    
     2.489731460238063        0.2721912175982914    
     2.502698811593470        0.2699130880730027    
     2.515666162948877        0.2676381672444397    
     2.528633514304283        0.2653670348450914    
     2.541600865659690        0.2631002463594053    
     2.554568217015096        0.2608383338201868    
     2.567535568370503        0.2585818065805198    
     2.580502919725909        0.2563311520619063    
     2.593470271081316        0.2540868364793192    
     2.606437622436722        0.2518493055438360    
     2.619404973792129        0.2496189851435076    
     2.632372325147536        0.2473962820031053    
     2.645339676502942        0.2451815843233657    
     2.658307027858349        0.2429752624003428    
     2.671274379213755        0.2407776692254608    
     2.684241730569162        0.2385891410668398    
     2.697209081924568        0.2364099980324612    
     2.710176433279975        0.2342405446157136    
     2.723143784635382        0.2320810702238544    
     2.736111135990788        0.2299318496899021    
     2.749078487346195        0.2277931437684626    
     2.762045838701602        0.2256651996159773    
     2.775013190057008        0.2235482512558671    
     2.787980541412415        0.2214425200290346    
     2.800947892767821        0.2193482150301723    
     2.813915244123228        0.2172655335303107    
     2.826882595478634        0.2151946613860290    
     2.839849946834041        0.2131357734357397    
     2.852817298189447        0.2110890338834432    
     2.865784649544854        0.2090545966703402    
     2.878752000900261        0.2070326058346756    
     2.891719352255667        0.2050231958601776    
     2.904686703611074        0.2030264920134459    
     2.917654054966480        0.2010426106706302    
     2.930621406321887        0.1990716596337296    
     2.943588757677293        0.1971137384368384    
     2.956556109032700        0.1951689386426476    
     2.969523460388107        0.1932373441295017    
     2.982490811743513        0.1913190313693149    
     2.995458163098920        0.1894140696966164    
     3.008425514454327        0.1875225215690129    
     3.021392865809733        0.1856444428193293    
     3.034360217165140        0.1837798828996866    
     3.047327568520546        0.1819288851177722    
     3.060294919875953        0.1800914868655412    
     3.073262271231359        0.1782677198405869    
     3.086229622586766        0.1764576102604096    
     3.099196973942172        0.1746611790698022    
     3.112164325297579        0.1728784421415712    
     3.125131676652986        0.1711094104707974    
     3.138099028008392        0.1693540903628402    
     3.151066379363799        0.1676124836152791    
     3.164033730719205        0.1658845876939815    
     3.177001082074612        0.1641703959034829    
     3.189968433430018        0.1624698975518516    
     3.202935784785425        0.1607830781102157    
     3.215903136140832        0.1591099193671137    
     3.228870487496238        0.1574503995778354    
     3.241837838851645        0.1558044936089040    
     3.254805190207052        0.1541721730778556    
     3.267772541562458        0.1525534064884593    
     3.280739892917865        0.1509481593615230    
     3.293707244273271        0.1493563943614193    
     3.306674595628678        0.1477780714184695    
     3.319641946984084        0.1462131478473081    
     3.332609298339491        0.1446615784613621    
     3.345576649694897        0.1431233156835568    
     3.358544001050304        0.1415983096533737    
     3.371511352405711        0.1400865083303680    
     3.384478703761117        0.1385878575942616    
     3.397446055116524        0.1371023013417134    
     3.410413406471930        0.1356297815798734    
     3.423380757827337        0.1341702385168213    
     3.436348109182743        0.1327236106489835    
     3.449315460538150        0.1312898348456265    
     3.462282811893557        0.1298688464305156    
     3.475250163248963        0.1284605792608271    
     3.488217514604370        0.1270649658034018    
     3.501184865959777        0.1256819372084192    
     3.514152217315183        0.1243114233805779    
     3.527119568670590        0.1229533530478530    
     3.540086920025996        0.1216076538279132    
     3.553054271381403        0.1202742522922669    
     3.566021622736809        0.1189530740282064    
     3.578988974092216        0.1176440436986248    
     3.591956325447622        0.1163470850997658    
     3.604923676803029        0.1150621212169736    
     3.617891028158436        0.1137890742785077    
     3.630858379513842        0.1125278658074775    
     3.643825730869249        0.1112784166719608    
     3.656793082224655        0.1100406471333609    
     3.669760433580062        0.1088144768930550    
     3.682727784935468        0.1075998251373922    
     3.695695136290875        0.1063966105810898    
     3.708662487646282        0.1052047515090768    
     3.721629839001688        0.1040241658168363    
     3.734597190357095        0.1028547710492930    
     3.747564541712502        0.1016964844382892    
     3.760531893067908        0.1005492229386960    
     3.773499244423315        0.9941290326320278E-01
     3.786466595778721        0.9828744191582443E-01
     3.799433947134128        0.9717275522416768E-01
     3.812401298489534        0.9606875937049578E-01
     3.825368649844941        0.9497537042163101E-01
     3.838336001200347        0.9389250435772613E-01
     3.851303352555754        0.9282007709994744E-01
     3.864270703911161        0.9175800453709893E-01
     3.877238055266567        0.9070620255122311E-01
     3.890205406621974        0.8966458704220980E-01
     3.903172757977381        0.8863307395144571E-01
     3.916140109332787        0.8761157928453249E-01
     3.929107460688193        0.8660001913310446E-01
     3.942074812043600        0.8559830969577427E-01
     3.955042163399006        0.8460636729823968E-01
     3.968009514754413        0.8362410841257416E-01
     3.980976866109820        0.8265144967572233E-01
     3.993944217465227        0.8168830790722498E-01
     4.006911568820633        0.8073460012619846E-01
     4.019878920176040        0.7979024356760218E-01
     4.032846271531446        0.7885515569781029E-01
     4.045813622886853        0.7792925422954576E-01
     4.058780974242259        0.7701245713613168E-01
     4.071748325597666        0.7610468266508520E-01
     4.084715676953072        0.7520584935114370E-01
     4.097683028308479        0.7431587602868286E-01
     4.110650379663886        0.7343468184355761E-01
     4.123617731019293        0.7256218626440654E-01
     4.136585082374699        0.7169830909342784E-01
     4.149552433730105        0.7084297047662685E-01
     4.162519785085512        0.6999609091356339E-01
     4.175487136440919        0.6915759126661274E-01
     4.188454487796325        0.6832739276975795E-01
     4.201421839151732        0.6750541703693559E-01
     4.214389190507139        0.6669158606994187E-01
     4.227356541862545        0.6588582226591566E-01
     4.240323893217951        0.6508804842441147E-01
     4.253291244573358        0.6429818775407746E-01
     4.266258595928765        0.6351616387895126E-01
     4.279225947284171        0.6274190084438441E-01
     4.292193298639578        0.6197532312261134E-01
     4.305160649994984        0.6121635561797207E-01
     4.318128001350391        0.6046492367180094E-01
     4.331095352705797        0.5972095306699386E-01
     4.344062704061204        0.5898437003226265E-01
     4.357030055416611        0.5825510124608951E-01
     4.369997406772018        0.5753307384039064E-01
     4.382964758127424        0.5681821540389809E-01
     4.395932109482830        0.5611045398527203E-01
     4.408899460838237        0.5540971809595000E-01
     4.421866812193644        0.5471593671274445E-01
     4.434834163549050        0.5402903928019578E-01
     4.447801514904457        0.5334895571269004E-01
     4.460768866259864        0.5267561639634970E-01
     4.473736217615270        0.5200895219070575E-01
     4.486703568970676        0.5134889443015701E-01
     4.499670920326083        0.5069537492522714E-01
     4.512638271681490        0.5004832596362477E-01
     4.525605623036896        0.4940768031111314E-01
     4.538572974392303        0.4877337121219837E-01
     4.551540325747709        0.4814533239064117E-01
     4.564507677103116        0.4752349804979871E-01
     4.577475028458522        0.4690780287280383E-01
     4.590442379813929        0.4629818202258619E-01
     4.603409731169336        0.4569457114174270E-01
     4.616377082524743        0.4509690635226158E-01
     4.629344433880149        0.4450512425510639E-01
     4.642311785235555        0.4391916192966507E-01
     4.655279136590962        0.4333895693306952E-01
     4.668246487946369        0.4276444729938916E-01
     4.681213839301775        0.4219557153870678E-01
     4.694181190657182        0.4163226863607627E-01
     4.707148542012589        0.4107447805037195E-01
     4.720115893367995        0.4052213971303071E-01
     4.733083244723401        0.3997519402669180E-01
     4.746050596078808        0.3943358186373901E-01
     4.759017947434215        0.3889724456474904E-01
     4.771985298789621        0.3836612393684951E-01
     4.784952650145028        0.3784016225199097E-01
     4.797920001500434        0.3731930224513585E-01
     4.810887352855841        0.3680348711236849E-01
     4.823854704211247        0.3629266050892955E-01
     4.836822055566654        0.3578676654717767E-01
     4.849789406922061        0.3528574979448212E-01
     4.862756758277468        0.3478955527104881E-01
     4.875724109632874        0.3429812844768392E-01
     4.888691460988280        0.3381141524349652E-01
     4.901658812343687        0.3332936202354381E-01
     4.914626163699094        0.3285191559642198E-01
     4.927593515054500        0.3237902321180462E-01
     4.940560866409907        0.3191063255793130E-01
     4.953528217765314        0.3144669175904960E-01
     4.966495569120720        0.3098714937281177E-01
     4.979462920476126        0.3053195438762897E-01
     4.992430271831533        0.3008105621998583E-01
     5.005397623186940        0.2963440471171605E-01
     5.018364974542346        0.2919195012724239E-01
     5.031332325897753        0.2875364315078285E-01
     5.044299677253159        0.2831943488352428E-01
     5.057267028608566        0.2788927684076567E-01
     5.070234379963972        0.2746312094903424E-01
     5.083201731319379        0.2704091954317305E-01
     5.096169082674786        0.2662262536340485E-01
     5.109136434030193        0.2620819155237297E-01
     5.122103785385599        0.2579757165215870E-01
     5.135071136741005        0.2539071960128042E-01
     5.148038488096412        0.2498758973167288E-01
     5.161005839451819        0.2458813676564936E-01
     5.173973190807225        0.2419231581284797E-01
     5.186940542162632        0.2380008236716330E-01
     5.199907893518039        0.2341139230366461E-01
     5.212875244873445        0.2302620187550197E-01
     5.225842596228851        0.2264446771080159E-01
     5.238809947584258        0.2226614680955098E-01
     5.251777298939665        0.2189119654047600E-01
     5.264744650295071        0.2151957463790957E-01
     5.277712001650478        0.2115123919865471E-01
     5.290679353005884        0.2078614867884088E-01
     5.303646704361291        0.2042426189077666E-01
     5.316614055716697        0.2006553799979792E-01
     5.329581407072104        0.1970993652111354E-01
     5.342548758427511        0.1935741731664943E-01
     5.355516109782918        0.1900794059189034E-01
     5.368483461138324        0.1866146689272228E-01
     5.381450812493730        0.1831795710227473E-01
     5.394418163849137        0.1797737243776404E-01
     5.407385515204544        0.1763967444733874E-01
     5.420352866559950        0.1730482500692696E-01
     5.433320217915357        0.1697278631708727E-01
     5.446287569270764        0.1664352089986287E-01
     5.459254920626170        0.1631699159564017E-01
     5.472222271981576        0.1599316156001264E-01
     5.485189623336983        0.1567199426064900E-01
     5.498156974692390        0.1535345347416850E-01
     5.511124326047796        0.1503750328302169E-01
     5.524091677403203        0.1472410807237857E-01
     5.537059028758609        0.1441323252702377E-01
     5.550026380114016        0.1410484162825944E-01
     5.562993731469422        0.1379890065081683E-01
     5.575961082824829        0.1349537515977548E-01
     5.588928434180236        0.1319423100749234E-01
     5.601895785535643        0.1289543433053940E-01
     5.614863136891048        0.1259895154665141E-01
     5.627830488246455        0.1230474935168325E-01
     5.640797839601862        0.1201279471657760E-01
     5.653765190957269        0.1172305488434355E-01
     5.666732542312675        0.1143549736704508E-01
     5.679699893668082        0.1115008994280169E-01
     5.692667245023489        0.1086680065279975E-01
     5.705634596378895        0.1058559779831540E-01
     5.718601947734301        0.1030644993774927E-01
     5.731569299089708        0.1002932588367321E-01
     5.744536650445115        0.9754194699889378E-02
     5.757504001800521        0.9481025698500938E-02
     5.770471353155928        0.9209788436996246E-02
     5.783438704511334        0.8940452715345028E-02
     5.796406055866741        0.8672988573107356E-02
     5.809373407222147        0.8407366286556065E-02
     5.822340758577554        0.8143556365811325E-02
     5.835308109932961        0.7881529551989678E-02
     5.848275461288368        0.7621256814364803E-02
     5.861242812643773        0.7362709347543775E-02
     5.874210163999180        0.7105858570399371E-02
     5.887177515354587        0.6850676222230609E-02
     5.900144866709994        0.6597135561710917E-02
     5.913112218065400        0.6345216628907491E-02
     5.926079569420807        0.6094917694552129E-02
     5.939046920776214        0.5846270581573051E-02
     5.952014272131620        0.5599354996152303E-02
     5.964981623487026        0.5354308125834739E-02
     5.977948974842433        0.5111328166358210E-02
     5.990916326197840        0.4870672258139469E-02
     6.003883677553246        0.4632650164912771E-02
     6.016851028908653        0.4397615189062021E-02
     6.029818380264059        0.4165953634661315E-02
     6.042785731619466        0.3938073830122564E-02
     6.055753082974872        0.3714395422935833E-02
     6.068720434330279        0.3495339414534216E-02
     6.081687785685686        0.3281319208210599E-02
     6.094655137041093        0.3072732807566144E-02
     6.107622488396498        0.2869956208006877E-02
     6.120589839751905        0.2673337961048523E-02
     6.133557191107312        0.2483194851756975E-02
     6.146524542462719        0.2299808606514210E-02
     6.159491893818125        0.2123423536325199E-02
     6.172459245173532        0.1954245016365479E-02
     6.185426596528939        0.1792438702808774E-02
     6.198393947884345        0.1638130391358301E-02
     6.211361299239751        0.1491406427090146E-02
     6.224328650595158        0.1352314581356455E-02
     6.237296001950565        0.1220865318006665E-02
     6.250263353305971        0.1097033377670031E-02
     6.263230704661378        0.9807596150044496E-03
     6.276198056016784        0.8719530294221356E-03
     6.289165407372191        0.7704929346017359E-03
     6.302132758727597        0.6762312157909442E-03
     6.315100110083004        0.5889946260146659E-03
     6.328067461438411        0.5085870720376969E-03
     6.341034812793818        0.4347918368171135E-03
     6.354002164149223        0.3673736744254853E-03
     6.366969515504630        0.3060806903755960E-03
     6.379936866860037        0.2506458728916758E-03
     6.392904218215444        0.2007880414143378E-03
     6.405871569570850        0.1562117590690033E-03
     6.418838920926257        0.1166052266183459E-03
     6.431806272281664        0.8163373350421223E-04
     6.444773623637070        0.5092154793487827E-04
     6.457740974992476        0.2399486292477902E-04
     6.470708326347883         0.000000000000000    
  0  5  2  0  0.000000   #orbital l, n, z, is_polarized, population
 500    0.9177894872961549E-02     4.579769541607813     # npts, delta, cutoff
     0.000000000000000       -0.2105879936892272    
    0.9177894872961549E-02   -0.2105153712381290    
    0.1835578974592310E-01   -0.2102913752080676    
    0.2753368461888465E-01   -0.2099184316522518    
    0.3671157949184620E-01   -0.2093971168992244    
    0.4588947436480775E-01   -0.2087282346372988    
    0.5506736923776930E-01   -0.2079128138137675    
    0.6424526411073084E-01   -0.2069521055164120    
    0.7342315898369239E-01   -0.2058475791326296    
    0.8260105385665395E-01   -0.2046009178315090    