<preamble>

<basis_specs>
===============================================================================
Ir                   Z=  77    Mass=  192.22        Charge= 0.17977+309
Lmxo=2 Lmxkb= 3    BasisType=split      Semic=T
L=0  Nsemic=1  Cnfigmx=6
          i=1  nzeta=1  polorb=0  (5s)  (semicore shell)
            splnorm:   0.15000    
               vcte:    40.000    
               rinn:    2.3958    
               qcoe:    0.0000    
               qyuk:    0.0000    
               qwid:   0.10000E-01
                rcs:    2.6620    
            lambdas:    1.0000    
          i=2  nzeta=2  polorb=0  (6s)  (to be polarized non-perturbatively)
            splnorm:   0.15000    
               vcte:    40.000    
               rinn:    5.5281    
               qcoe:    0.0000    
               qyuk:    0.0000    
               qwid:   0.10000E-01
                rcs:    6.1423      4.3168    
            lambdas:    1.0000      1.0000    
L=1  Nsemic=1  Cnfigmx=6
          i=1  nzeta=1  polorb=0  (5p)  (semicore shell)
            splnorm:   0.15000    
               vcte:    40.000    
               rinn:    2.8329    
               qcoe:    0.0000    
               qyuk:    0.0000    
               qwid:   0.10000E-01
                rcs:    3.1445    
            lambdas:    1.0000    
          i=2  nzeta=1  polorb=0  (6p)  (non-perturbative polarization shell)
            splnorm:   0.15000    
               vcte:    40.000    
               rinn:    5.5336    
               qcoe:    0.0000    
               qyuk:    0.0000    
               qwid:   0.10000E-01
                rcs:    6.1423    
            lambdas:    1.0000    
L=2  Nsemic=0  Cnfigmx=5
          i=1  nzeta=2  polorb=0  (5d)
            splnorm:   0.15000    
               vcte:    40.000    
               rinn:    4.6624    
               qcoe:    0.0000    
               qyuk:    0.0000    
               qwid:   0.10000E-01
                rcs:    5.1805      3.3868    
            lambdas:    1.0000      1.0000    
-------------------------------------------------------------------------------
L=0  Nkbl=2  erefs: 0.17977+309 0.17977+309
L=1  Nkbl=2  erefs: 0.17977+309 0.17977+309
L=2  Nkbl=1  erefs: 0.17977+309
L=3  Nkbl=1  erefs: 0.17977+309
===============================================================================
</basis_specs>

<pseudopotential_header>
 Ir pw nrl pcec
 ONCVPSP-3.2018-03-09Hamann's oncvpsp                        
 5s 2.00  r= 1.66/5p 6.00  r= 1.66/5d 7.00  r= 1.51/5f 0.00  r= 2.27/   5s:5p:5d:6s:
</pseudopotential_header>
</preamble>
Ir                            # Symbol
Ir                            # Label
   77                         # Atomic number
     17.0000000000                             # Valence charge
     192.220000000        # Mass 
     306.718418194        # Self energy 
   2   7                      # Lmax for basis, no. of nl orbitals 
   3   8                      # Lmax for projectors, no. of nl KB projectors
# PAOs:__________________________
  0  5  1  0  2.000000   #orbital l, n, z, is_polarized, population
 500    0.5334683037848837E-02     2.662006835886570     # npts, delta, cutoff
     0.000000000000000         1.295852399530708    
    0.5334683037848837E-02     1.295861216268600    
    0.1066936607569767E-01     1.295997490600705    
    0.1600404911354651E-01     1.296224531244978    
    0.2133873215139535E-01     1.296542127406378    
    0.2667341518924418E-01     1.296950004823046    
    0.3200809822709302E-01     1.297447814495914    
    0.3734278126494186E-01     1.298035131308666    
    0.4267746430279069E-01     1.298711453933892    
    0.4801214734063953E-01     1.299476205069163    
    0.5334683037848836E-01     1.300328731811526    
    0.5868151341633721E-01     1.301268306117878    
    0.6401619645418605E-01     1.302294125333439    
    0.6935087949203488E-01     1.303405312781158    
    0.7468556252988372E-01     1.304600918408690    
    0.8002024556773255E-01     1.305879919491034    
    0.8535492860558139E-01     1.307241221387566    
    0.9068961164343023E-01     1.308683658352457    
    0.9602429468127906E-01     1.310205994397579    
    0.1013589777191279         1.311806924207068    
    0.1066936607569767         1.313485074102655    
    0.1120283437948256         1.315239003058930    
    0.1173630268326744         1.317067203767636    
    0.1226977098705232         1.318968103750046    
    0.1280323929083721         1.320940066516498    
    0.1333670759462209         1.322981392772065    
    0.1387017589840698         1.325090321667346    
    0.1440364420219186         1.327265032093298    
    0.1493711250597674         1.329503644019027    
    0.1547058080976163         1.331804219871390    
    0.1600404911354651         1.334164765955241    
    0.1653751741733139         1.336583233913135    
    0.1707098572111628         1.339057522223242    
    0.1760445402490116         1.341585477734229    
    0.1813792232868605         1.344164897235811    
    0.1867139063247093         1.346793529063655    
    0.1920485893625581         1.349469074737310    
    0.1973832724004070         1.352189190629775    
    0.2027179554382558         1.354951489667337    
    0.2080526384761046         1.357753543058260    
    0.2133873215139535         1.360592882048882    
    0.2187220045518023         1.363466999705695    
    0.2240566875896511         1.366373352721915    
    0.2293913706275000         1.369309363247065    
    0.2347260536653488         1.372272420738082    
    0.2400607367031977         1.375259883830415    
    0.2453954197410465         1.378269082227605    
    0.2507301027788953         1.381297318607809    
    0.2560647858167442         1.384341870545700    
    0.2613994688545930         1.387399992448234    
    0.2667341518924418         1.390468917502684    
    0.2720688349302907         1.393545859635386    
    0.2774035179681395         1.396628015479656    
    0.2827382010059883         1.399712566351271    
    0.2880728840438372         1.402796680229969    
    0.2934075670816860         1.405877513745386    
    0.2987422501195349         1.408952214165876    
    0.3040769331573837         1.412017921388641    
    0.3094116161952326         1.415071769929607    
    0.3147462992330813         1.418110890911517    
    0.3200809822709302         1.421132414048683    
    0.3254156653087790         1.424133469626848    
    0.3307503483466279         1.427111190476674    
    0.3360850313844767         1.430062713939299    
    0.3414197144223255         1.432985183822509    
    0.3467543974601744         1.435875752345993    
    0.3520890804980232         1.438731582074257    
    0.3574237635358721         1.441549847835718    
    0.3627584465737209         1.444327738626557    
    0.3680931296115698         1.447062459497910    
    0.3734278126494185         1.449751233425000    
    0.3787624956872674         1.452391303156863    
    0.3840971787251162         1.454979933045275    
    0.3894318617629651         1.457514410851595    
    0.3947665448008139         1.459992049530206    
    0.4001012278386628         1.462410188987269    
    0.4054359108765116         1.464766197813562    
    0.4107705939143604         1.467057474990165    
    0.4161052769522093         1.469281451565817    
    0.4214399599900581         1.471435592304758    
    0.4267746430279069         1.473517397303938    
    0.4321093260657557         1.475524403578504    
    0.4374440091036046         1.477454186614463    
    0.4427786921414534         1.479304361887510    
    0.4481133751793023         1.481072586347004    
    0.4534480582171511         1.482756559864134    
    0.4587827412550000         1.484354026643318    
    0.4641174242928488         1.485862776595957    
    0.4694521073306976         1.487280646675671    
    0.4747867903685465         1.488605522174176    
    0.4801214734063953         1.489835337977033    
    0.4854561564442441         1.490968079778493    
    0.4907908394820930         1.492001785254736    
    0.4961255225199418         1.492934545194810    
    0.5014602055577907         1.493764504588645    
    0.5067948885956395         1.494489863671526    
    0.5121295716334884         1.495108878924466    
    0.5174642546713372         1.495619864029956    
    0.5227989377091860         1.496021190782603    
    0.5281336207470348         1.496311289954207    
    0.5334683037848836         1.496488652112882    
    0.5388029868227325         1.496551828395839    
    0.5441376698605813         1.496499431235513    
    0.5494723528984302         1.496330135038731    
    0.5548070359362790         1.496042676818715    
    0.5601417189741279         1.495635856779638    
    0.5654764020119767         1.495108538853644    
    0.5708110850498255         1.494459651190137    
    0.5761457680876744         1.493688186597288    
    0.5814804511255232         1.492793202935694    
    0.5868151341633721         1.491773823464176    
    0.5921498172012208         1.490629237137744    
    0.5974845002390697         1.489358698857783    
    0.6028191832769185         1.487961529674588    
    0.6081538663147674         1.486437116942353    
    0.6134885493526162         1.484784914426818    
    0.6188232323904651         1.483004442365784    
    0.6241579154283139         1.481095287482719    
    0.6294925984661627         1.479057102953794    
    0.6348272815040116         1.476889608328607    
    0.6401619645418604         1.474592589405016    
    0.6454966475797093         1.472165898058424    
    0.6508313306175580         1.469609452025967    
    0.6561660136554069         1.466923234646055    
    0.6615006966932557         1.464107294553769    
    0.6668353797311046         1.461161745332620    
    0.6721700627689534         1.458086765123248    
    0.6775047458068023         1.454882596189629    
    0.6828394288446511         1.451549544443427    
    0.6881741118824999         1.448087978927117    
    0.6935087949203488         1.444498331256575    
    0.6988434779581976         1.440781095023823    
    0.7041781609960465         1.436936825160684    
    0.7095128440338953         1.432966137264067    
    0.7148475270717441         1.428869706883717    
    0.7201822101095929         1.424648268773193    
    0.7255168931474418         1.420302616104934    
    0.7308515761852906         1.415833599650267    
    0.7361862592231395         1.411242126925237    
    0.7415209422609883         1.406529161303150    
    0.7468556252988371         1.401695721094769    
    0.7521903083366860         1.396742878598473    
    0.7575249913745348         1.391671759340382    
    0.7628596744123837         1.386483540443954    
    0.7681943574502325         1.381179450099566    
    0.7735290404880814         1.375760766442772    
    0.7788637235259301         1.370228816402344    
    0.7841984065637790         1.364584974581378    
    0.7895330896016278         1.358830662114073    
    0.7948677726394767         1.352967345499242    
    0.8002024556773255         1.346996535411654    
    0.8055371387151743         1.340919785492283    
    0.8108718217530232         1.334738691118571    
    0.8162065047908720         1.328454888155825    
    0.8215411878287209         1.322070051690847    
    0.8268758708665697         1.315585894748941    
    0.8322105539044186         1.309004166995411    
    0.8375452369422673         1.302326653422705    
    0.8428799199801162         1.295555173024315    
    0.8482146030179650         1.288691577456612    
    0.8535492860558138         1.281737749689726    
    0.8588839690936627         1.274695602648635    
    0.8642186521315115         1.267567077845599    
    0.8695533351693604         1.260354144005090    
    0.8748880182072092         1.253058795682347    
    0.8802227012450581         1.245683051876699    
    0.8855573842829069         1.238228954640806    
    0.8908920673207558         1.230698567686908    
    0.8962267503586046         1.223093974991245    
    0.9015614333964534         1.215417279397744    
    0.9068961164343022         1.207670601222079    
    0.9122307994721510         1.199856076857204    
    0.9175654825099999         1.191975857381459    
    0.9229001655478487         1.184032107170313    
    0.9282348485856976         1.176027002512813    
    0.9335695316235464         1.167962730233807    
    0.9389042146613953         1.159841486322958    
    0.9442388976992441         1.151665474571597    
    0.9495735807370930         1.143436905218412    
    0.9549082637749418         1.135157993604977    
    0.9602429468127907         1.126830958842092    
    0.9655776298506394         1.118458022487904    
    0.9709123128884882         1.110041407238737    
    0.9762469959263371         1.101583335633572    
    0.9815816789641859         1.093086028773069    
    0.9869163620020348         1.084551705054013    
    0.9922510450398836         1.075982578920054    
    0.9975857280777325         1.067380859629567    
     1.002920411115581         1.058748750041461    
     1.008255094153430         1.050088445419730    
     1.013589777191279         1.041402132257498    
     1.018924460229128         1.032691987121326    
     1.024259143266977         1.023960175516483    
     1.029593826304825         1.015208850773886    
     1.034928509342674         1.006440152959360    
     1.040263192380523        0.9976562078058808    
     1.045597875418372        0.9888591256693994    
     1.050932558456221        0.9800510005088310    
     1.056267241494070        0.9712339088907781    
     1.061601924531919        0.9624099090195045    
     1.066936607569767        0.9535810397926739    
     1.072271290607616        0.9447493198833041    
     1.077605973645465        0.9359167468484001    
     1.082940656683314        0.9270852962646670    
     1.088275339721163        0.9182569208916768    
     1.093610022759012        0.9094335498628604    
     1.098944705796860        0.9006170879046279    
     1.104279388834709        0.8918094145839142    
     1.109614071872558        0.8830123835844156    
     1.114948754910407        0.8742278220117393    
     1.120283437948256        0.8654575297276651    
     1.125618120986104        0.8567032787136932    
     1.130952804023953        0.8479668124640086    
     1.136287487061802        0.8392498454079752    
     1.141622170099651        0.8305540623622335    
     1.146956853137500        0.8218811180124410    
     1.152291536175349        0.8132326364246846    
     1.157626219213198        0.8046102105865424    
     1.162960902251046        0.7960154019777470    
     1.168295585288895        0.7874497401703867    
     1.173630268326744        0.7789147224585309    
     1.178964951364593        0.7704118135171667    
     1.184299634402442        0.7619424450902544    
     1.189634317440291        0.7535080157077505    
     1.194969000478139        0.7451098904313553    
     1.200303683515988        0.7367494006287545    
     1.205638366553837        0.7284278437760776    
     1.210973049591686        0.7201464832882910    
     1.216307732629535        0.7119065483771831    
     1.221642415667384        0.7037092339366104    
     1.226977098705232        0.6955557004546327    
     1.232311781743081        0.6874470739521298    
     1.237646464780930        0.6793844459475005    
     1.242981147818779        0.6713688734469836    
     1.248315830856628        0.6634013789601537    
     1.253650513894477        0.6554829505401029    
     1.258985196932325        0.6476145418478000    
     1.264319879970174        0.6397970722401177    
     1.269654563008023        0.6320314268809710    
     1.274989246045872        0.6243184568750156    
     1.280323929083721        0.6166589794233371    
     1.285658612121570        0.6090537780005160    
     1.290993295159419        0.6015036025524984    
     1.296327978197267        0.5940091697146055    
     1.301662661235116        0.5865711630490917    
     1.306997344272965        0.5791902333015689    
     1.312332027310814        0.5718669986756628    
     1.317666710348663        0.5646020451252212    
     1.323001393386511        0.5573959266633932    
     1.328336076424360        0.5502491656879067    
     1.333670759462209        0.5431622533218305    
     1.339005442500058        0.5361356497691403    
     1.344340125537907        0.5291697846843630    
     1.349674808575756        0.5222650575556106    
     1.355009491613605        0.5154218381002659    
     1.360344174651453        0.5086404666726223    
     1.365678857689302        0.5019212546827506    
     1.371013540727151        0.4952644850258729    
     1.376348223765000        0.4886704125215389    
     1.381682906802849        0.4821392643618604    
     1.387017589840698        0.4756712405681268    
     1.392352272878546        0.4692665144550572    
     1.397686955916395        0.4629252331020050    
     1.403021638954244        0.4566475178304048    
     1.408356321992093        0.4504334646867657    
     1.413691005029942        0.4442831449305366    
     1.419025688067791        0.4381966055261399    
     1.424360371105639        0.4321738696385336    
     1.429695054143488        0.4262149371316143    
     1.435029737181337        0.4203197850688333    
     1.440364420219186        0.4144883682153711    
     1.445699103257035        0.4087206195412542    
     1.451033786294884        0.4030164507248056    
     1.456368469332732        0.3973757526558152    
     1.461703152370581        0.3917983959378609    
     1.467037835408430        0.3862842313892129    
     1.472372518446279        0.3808330905417505    
     1.477707201484128        0.3754447861373833    
     1.483041884521977        0.3701191126214307    
     1.488376567559826        0.3648558466324790    
     1.493711250597674        0.3596547474882338    
     1.499045933635523        0.3545155576668876    
     1.504380616673372        0.3494380032835744    
     1.509715299711221        0.3444217945614894    
     1.515049982749070        0.3394666262972605    
     1.520384665786918        0.3345721783201927    
     1.525719348824767        0.3297381159450302    
     1.531054031862616        0.3249640904178899    
     1.536388714900465        0.3202497393550472    
     1.541723397938314        0.3155946871742855    
     1.547058080976163        0.3109985455185321    
     1.552392764014011        0.3064609136715210    
     1.557727447051860        0.3019813789652597    
     1.563062130089709        0.2975595171791017    
     1.568396813127558        0.2931948929302211    
     1.573731496165407        0.2888870600553443    
     1.579066179203256        0.2846355619834215    
     1.584400862241105        0.2804399319957165    
     1.589735545278953        0.2762996933386222    
     1.595070228316802        0.2722143601720121    
     1.600404911354651        0.2681834376835431    
     1.605739594392500        0.2642064223895758    
     1.611074277430349        0.2602828024157228    
     1.616408960468197        0.2564120577846692    
     1.621743643506046        0.2525936608474063    
     1.627078326543895        0.2488270766293323    
     1.632413009581744        0.2451117633145206    
     1.637747692619593        0.2414471721961645    
     1.643082375657442        0.2378327473880806    
     1.648417058695291        0.2342679258602073    
     1.653751741733139        0.2307521376320170    
     1.659086424770988        0.2272848072286088    
     1.664421107808837        0.2238653553848138    
     1.669755790846686        0.2204932008330990    
     1.675090473884535        0.2171677621576744    
     1.680425156922384        0.2138884595860159    
     1.685759839960232        0.2106547165573420    
     1.691094522998081        0.2074659611915860    
     1.696429206035930        0.2043216269194605    
     1.701763889073779        0.2012211523034202    
     1.707098572111628        0.1981639808332184    
     1.712433255149477        0.1951495604365958    
     1.717767938187325        0.1921773434879427    
     1.723102621225174        0.1892467869888190    
     1.728437304263023        0.1863573526488505    
     1.733771987300872        0.1835085070189312    
     1.739106670338721        0.1806997214893526    
     1.744441353376570        0.1779304722887100    
     1.749776036414418        0.1752002405051049    
     1.755110719452267        0.1725085121043362    
     1.760445402490116        0.1698547779447243    
     1.765780085527965        0.1672385337890453    
     1.771114768565814        0.1646592803136841    
     1.776449451603663        0.1621165231150871    
     1.781784134641512        0.1596097727136291    
     1.787118817679360        0.1571385445550108    
     1.792453500717209        0.1547023590092842    
     1.797788183755058        0.1523007413676221    
     1.803122866792907        0.1499332218369236    
     1.808457549830756        0.1475993355323577    
     1.813792232868604        0.1452986224679348    
     1.819126915906453        0.1430306275452005    
     1.824461598944302        0.1407949005401365    
     1.829796281982151        0.1385909960883559    
     1.835130965020000        0.1364184736686691    
     1.840465648057849        0.1342768975851052    
     1.845800331095697        0.1321658369474624    
     1.851135014133546        0.1300848656504568    
     1.856469697171395        0.1280335623515476    
     1.861804380209244        0.1260115104475004    
     1.867139063247093        0.1240182980497579    
     1.872473746284942        0.1220535179586787    
     1.877808429322791        0.1201167676367094    
     1.883143112360639        0.1182076491805435    
     1.888477795398488        0.1163257692923278    
     1.893812478436337        0.1144707392499695    
     1.899147161474186        0.1126421748765975    
     1.904481844512035        0.1108396965092248    
     1.909816527549884        0.1090629289666671    
     1.915151210587732        0.1073115015167613    
     1.920485893625581        0.1055850478429253    
     1.925820576663430        0.1038832060101107    
     1.931155259701279        0.1022056184301837    
     1.936489942739128        0.1005519318267764    
     1.941824625776976        0.9892179719964860E-01
     1.947159308814825        0.9731486978859527E-01
     1.952493991852674        0.9573080903693720E-01
     1.957828674890523        0.9416927855462678E-01
     1.963163357928372        0.9262994608100482E-01
     1.968498040966221        0.9111248344723855E-01
     1.973832724004070        0.8961656653846975E-01
     1.979167407041919        0.8814187525570638E-01
     1.984502090079767        0.8668809347748088E-01
     1.989836773117616        0.8525490902130482E-01
     1.995171456155465        0.8384201360494561E-01
     2.000506139193314        0.8244910280754951E-01
     2.005840822231163        0.8107587603063227E-01
     2.011175505269011        0.7972203645896539E-01
     2.016510188306860        0.7838729102137398E-01
     2.021844871344709        0.7707135035147054E-01
     2.027179554382558        0.7577392874834291E-01
     2.032514237420407        0.7449474413721613E-01
     2.037848920458256        0.7323351803010585E-01
     2.043183603496105        0.7198997548648009E-01
     2.048518286533954        0.7076384507394796E-01
     2.053852969571802        0.6955485882898797E-01
     2.059187652609651        0.6836275221773315E-01
     2.064522335647500        0.6718726409682699E-01
     2.069857018685349        0.6602813667436365E-01
     2.075191701723198        0.6488511547092415E-01
     2.080526384761046        0.6375794928072345E-01
     2.085861067798895        0.6264639013287679E-01
     2.091195750836744        0.6155019325280123E-01
     2.096530433874593        0.6046911702375598E-01
     2.101865116912442        0.5940292294853860E-01
     2.107199799950290        0.5835137561134365E-01
     2.112534482988139        0.5731424263978861E-01
     2.117869166025988        0.5629129466712410E-01
     2.123203849063837        0.5528230529462901E-01
     2.128538532101686        0.5428705105420113E-01
     2.133873215139535        0.5330531137115019E-01
     2.139207898177383        0.5233686852720003E-01
     2.144542581215232        0.5138150762370476E-01
     2.149877264253081        0.5043901654508700E-01
     2.155211947290930        0.4950918592250132E-01
     2.160546630328779        0.4859180909773005E-01
     2.165881313366627        0.4768668208731444E-01
     2.171215996404476        0.4679360354692645E-01
     2.176550679442325        0.4591237473598602E-01
     2.181885362480174        0.4504279948252488E-01
     2.187220045518023        0.4418468414830472E-01
     2.192554728555872        0.4333783759418715E-01
     2.197889411593721        0.4250207114576397E-01
     2.203224094631570        0.4167719855924721E-01
     2.208558777669418        0.4086303598762088E-01
     2.213893460707267        0.4005940194705868E-01
     2.219228143745116        0.3926611728360833E-01
     2.224562826782965        0.3848300514014356E-01
     2.229897509820814        0.3770989092358664E-01
     2.235232192858663        0.3694660227240066E-01
     2.240566875896512        0.3619296902435602E-01
     2.245901558934360        0.3544882318456606E-01
     2.251236241972209        0.3471399889379971E-01
     2.256570925010058        0.3398833239706575E-01
     2.261905608047907        0.3327166201247156E-01
     2.267240291085756        0.3256382810035606E-01
     2.272574974123605        0.3186467303269661E-01
     2.277909657161453        0.3117404116279014E-01
     2.283244340199302        0.3049177879520692E-01
     2.288579023237151        0.2981773415601780E-01
     2.293913706275000        0.2915175736329498E-01
     2.299248389312849        0.2849370039788167E-01
     2.304583072350697        0.2784341707443516E-01
     2.309917755388546        0.2720076301273815E-01
     2.315252438426395        0.2656559560927914E-01
     2.320587121464244        0.2593777400910020E-01
     2.325921804502093        0.2531715907791041E-01
     2.331256487539942        0.2470361337446583E-01
     2.336591170577790        0.2409700112320960E-01
     2.341925853615639        0.2349718818717702E-01
     2.347260536653488        0.2290404204115825E-01
     2.352595219691337        0.2231743174512025E-01
     2.357929902729186        0.2173722791788506E-01
     2.363264585767034        0.2116330271106244E-01
     2.368599268804883        0.2059552978323564E-01
     2.373933951842732        0.2003378427439655E-01
     2.379268634880581        0.1947794278063133E-01
     2.384603317918430        0.1892788332905032E-01
     2.389938000956279        0.1838348535296362E-01
     2.395272683994128        0.1784462966729771E-01
     2.400607367031976        0.1731119844425196E-01
     2.405942050069825        0.1678307518919252E-01
     2.411276733107674        0.1626014471684824E-01
     2.416611416145523        0.1574229314045789E-01
     2.421946099183372        0.1522940818163154E-01
     2.427280782221221        0.1472138158898260E-01
     2.432615465259070        0.1421811671251103E-01
     2.437950148296919        0.1371954160363252E-01
     2.443284831334767        0.1322562404476620E-01
     2.448619514372616        0.1273638414915516E-01
     2.453954197410465        0.1225190199236589E-01
     2.459288880448314        0.1177231981279541E-01
     2.464623563486163        0.1129783958924507E-01
     2.469958246524012        0.1082871727478976E-01
     2.475292929561860        0.1036525495402762E-01
     2.480627612599709        0.9907791968512509E-02
     2.485962295637558        0.9456695783483085E-02
     2.491296978675407        0.9012353122362780E-02
     2.496631661713256        0.8575161698919354E-02
     2.501966344751104        0.8145522731814981E-02
     2.507301027788953        0.7723834324812690E-02
     2.512635710826802        0.7310485728244661E-02
     2.517970393864651        0.6905852454434517E-02
     2.523305076902500        0.6510292194249714E-02
     2.528639759940349        0.6124141468308284E-02
     2.533974442978197        0.5747712940522904E-02
     2.539309126016046        0.5381293320812383E-02
     2.544643809053895        0.5025141785955009E-02
     2.549978492091744        0.4679488851369579E-02
     2.555313175129593        0.4344535631156866E-02
     2.560647858167441        0.4020453428408250E-02
     2.565982541205290        0.3707383602120594E-02
     2.571317224243139        0.3405437660704219E-02
     2.576651907280988        0.3114697534672695E-02
     2.581986590318837        0.2835215982251474E-02
     2.587321273356686        0.2567017080722553E-02
     2.592655956394535        0.2310096752364263E-02
     2.597990639432383        0.2064423265181893E-02
     2.603325322470232        0.1829937632299230E-02
     2.608660005508081        0.1606553804405073E-02
     2.613994688545930        0.1394158496385846E-02
     2.619329371583779        0.1192610390542624E-02
     2.624664054621628        0.1001738267488850E-02
     2.629998737659477        0.8213372216759344E-03
     2.635333420697325        0.6511612375745747E-03
     2.640668103735174        0.4909082093991730E-03
     2.646002786773023        0.3401871530972656E-03
     2.651337469810872        0.1984347897669525E-03
     2.656672152848721        0.6462330506601181E-04
     2.662006835886570         0.000000000000000    
  0  6  1  0  2.000000   #orbital l, n, z, is_polarized, population
 500    0.1230926551461145E-01     6.142323491791112     # npts, delta, cutoff
     0.000000000000000        0.9963102609797250    
    0.1230926551461145E-01    0.9963037628019841    