<preamble>

<basis_specs>
===============================================================================
Na                   Z=  11    Mass=  22.990        Charge= 0.17977+309
Lmxo=1 Lmxkb= 1    BasisType=split      Semic=T
L=0  Nsemic=1  Cnfigmx=3
          i=1  nzeta=1  polorb=0  (2s)  (semicore shell)
            splnorm:   0.15000    
               vcte:    40.000    
               rinn:    2.4865    
               qcoe:    0.0000    
               qyuk:    0.0000    
               qwid:   0.10000E-01
                rcs:    2.7600    
            lambdas:    1.0000    
          i=2  nzeta=2  polorb=0  (3s)  (to be polarized non-perturbatively)
            splnorm:   0.15000    
               vcte:    40.000    
               rinn:    8.4520    
               qcoe:    0.0000    
               qyuk:    0.0000    
               qwid:   0.10000E-01
                rcs:    9.3911      6.9129    
            lambdas:    1.0000      1.0000    
L=1  Nsemic=1  Cnfigmx=3
          i=1  nzeta=1  polorb=0  (2p)  (semicore shell)
            splnorm:   0.15000    
               vcte:    40.000    
               rinn:    2.8845    
               qcoe:    0.0000    
               qyuk:    0.0000    
               qwid:   0.10000E-01
                rcs:    3.2018    
            lambdas:    1.0000    
          i=2  nzeta=1  polorb=0  (3p)  (non-perturbative polarization shell)
            splnorm:   0.15000    
               vcte:    40.000    
               rinn:    8.4605    
               qcoe:    0.0000    
               qyuk:    0.0000    
               qwid:   0.10000E-01
                rcs:    9.3911    
            lambdas:    1.0000    
-------------------------------------------------------------------------------
L=0  Nkbl=2  erefs: 0.17977+309 0.17977+309
L=1  Nkbl=2  erefs: 0.17977+309 0.17977+309
===============================================================================
</basis_specs>

<pseudopotential_header>
 Na pw nrl nc  
 ONCVPSP-3.2018-03-09Hamann's oncvpsp                        
 2s 2.00  r= 1.21/2p 6.00  r= 1.55/                                     2s:2p:3s:
</pseudopotential_header>
</preamble>
Na                            # Symbol
Na                            # Label
   11                         # Atomic number
     9.00000000000                             # Valence charge
     22.9900000000        # Mass 
     109.367099809        # Self energy 
   1   5                      # Lmax for basis, no. of nl orbitals 
   1   4                      # Lmax for projectors, no. of nl KB projectors
# PAOs:__________________________
  0  2  1  0  2.000000   #orbital l, n, z, is_polarized, population
 500    0.5530964946463984E-02     2.759951508285528     # npts, delta, cutoff
     0.000000000000000         2.880044613276227    
    0.5530964946463984E-02     2.879891870212806    
    0.1106192989292797E-01     2.879562931573040    
    0.1659289483939195E-01     2.879014822513211    
    0.2212385978585594E-01     2.878247628407102    
    0.2765482473231992E-01     2.877261492234574    
    0.3318578967878390E-01     2.876056601586052    
    0.3871675462524789E-01     2.874633186831986    
    0.4424771957171187E-01     2.872991520693056    
    0.4977868451817585E-01     2.871131918126005    
    0.5530964946463984E-01     2.869054736307705    
    0.6084061441110382E-01     2.866760374657853    
    0.6637157935756781E-01     2.864249274880090    
    0.7190254430403178E-01     2.861521921013434    
    0.7743350925049577E-01     2.858578839490149    
    0.8296447419695975E-01     2.855420599197938    
    0.8849543914342374E-01     2.852047811544991    
    0.9402640408988773E-01     2.848461130526789    
    0.9955736903635171E-01     2.844661252793639    
    0.1050883339828157         2.840648917718045    
    0.1106192989292797         2.836424907460958    
    0.1161502638757437         2.831990047036022    
    0.1216812288222076         2.827345204370854    
    0.1272121937686716         2.822491290364412    
    0.1327431587151356         2.817429258939502    
    0.1382741236615996         2.812160107089410    
    0.1438050886080636         2.806684874917685    
    0.1493360535545276         2.801004645670031    
    0.1548670185009915         2.795120545757338    
    0.1603979834474555         2.789033744768751    
    0.1659289483939195         2.782745455473817    
    0.1714599133403835         2.776256933812625    
    0.1769908782868475         2.769569478872936    
    0.1825218432333115         2.762684432853268    
    0.1880528081797755         2.755603181010923    
    0.1935837731262394         2.748327151593967    
    0.1991147380727034         2.740857815756150    
    0.2046457030191674         2.733196687453829    
    0.2101766679656314         2.725345323323940    
    0.2157076329120954         2.717305322542076    
    0.2212385978585593         2.709078326659831    
    0.2267695628050233         2.700666019420514    
    0.2323005277514873         2.692070126552405    
    0.2378314926979513         2.683292415538805    
    0.2433624576444153         2.674334695364083    
    0.2488934225908793         2.665198816235069    
    0.2544243875373433         2.655886669277085    
    0.2599553524838072         2.646400186204033    
    0.2654863174302712         2.636741338961962    
    0.2710172823767352         2.626912139345618    
    0.2765482473231992         2.616914638587493    
    0.2820792122696631         2.606750926918989    
    0.2876101772161271         2.596423133103349    
    0.2931411421625911         2.585933423940058    
    0.2986721071090551         2.575284003740464    
    0.3042030720555191         2.564477113774509    
    0.3097340370019831         2.553515031688368    
    0.3152650019484471         2.542400070893042    
    0.3207959668949111         2.531134579923837    
    0.3263269318413751         2.519720941770860    
    0.3318578967878390         2.508161573180617    
    0.3373888617343030         2.496458923928977    
    0.3429198266807670         2.484615476065692    
    0.3484507916272310         2.472633743130840    
    0.3539817565736950         2.460516269343558    
    0.3595127215201590         2.448265628763504    
    0.3650436864666229         2.435884424425558    
    0.3705746514130869         2.423375287448314    
    0.3761056163595509         2.410740876116973    
    0.3816365813060149         2.397983874941325    
    0.3871675462524788         2.385106993689521    
    0.3926985111989428         2.372112966398433    
    0.3982294761454068         2.359004550361413    
    0.4037604410918708         2.345784525094317    
    0.4092914060383348         2.332455691280748    
    0.4148223709847988         2.319020869697427    
    0.4203533359312628         2.305482900120754    
    0.4258843008777268         2.291844640215553    
    0.4314152658241907         2.278108964407104    
    0.4369462307706547         2.264278762737582    
    0.4424771957171187         2.250356939708008    
    0.4480081606635827         2.236346413106507    
    0.4535391256100467         2.222250116724765    
    0.4590700905565107         2.208070988481358    
    0.4646010555029746         2.193811977751188    
    0.4701320204494386         2.179476043539331    
    0.4756629853959026         2.165066152124784    
    0.4811939503423666         2.150585275835160    
    0.4867249152888306         2.136036391816845    
    0.4922558802352945         2.121422480801848    
    0.4977868451817585         2.106746525872706    
    0.5033178101282225         2.092011511226669    
    0.5088487750746865         2.077220420940478    
    0.5143797400211505         2.062376237737009    
    0.5199107049676145         2.047481941755053    
    0.5254416699140785         2.032540509323470    
    0.5309726348605425         2.017554911740961    
    0.5365035998070065         2.002528114062693    
    0.5420345647534704         1.987463073894956    
    0.5475655296999344         1.972362740199015    
    0.5530964946463984         1.957230052105352    
    0.5586274595928623         1.942067937739361    
    0.5641584245393263         1.926879313059638    
    0.5696893894857903         1.911667080709889    
    0.5752203544322543         1.896434128885499    
    0.5807513193787183         1.881183330215747    
    0.5862822843251823         1.865917540662616    
    0.5918132492716462         1.850639598437116    
    0.5973442142181102         1.835352322933986    
    0.6028751791645742         1.820058513685609    
    0.6084061441110382         1.804760949335932    
    0.6139371090575022         1.789462386635128    
    0.6194680740039662         1.774165559455700    
    0.6249990389504302         1.758873177830694    
    0.6305300038968942         1.743587927014608    
    0.6360609688433582         1.728312466567581    
    0.6415919337898222         1.713049429463366    
    0.6471228987362861         1.697801421221555    
    0.6526538636827501         1.682571019064487    
    0.6581848286292140         1.667360771099210    
    0.6637157935756780         1.652173195524825    
    0.6692467585221420         1.637010779865499    
    0.6747777234686060         1.621875980229392    
    0.6803086884150700         1.606771220593672    
    0.6858396533615340         1.591698892115794    
    0.6913706183079980         1.576661352471137    
    0.6969015832544619         1.561660925217052    
    0.7024325482009259         1.546699899183370    
    0.7079635131473899         1.531780527889341    
    0.7134944780938539         1.516905028986938    
    0.7190254430403179         1.502075583730468    
    0.7245564079867819         1.487294336472319    
    0.7300873729332459         1.472563394184713    
    0.7356183378797099         1.457884826007271    
    0.7411493028261739         1.443260662820134    
    0.7466802677726379         1.428692896842426    
    0.7522112327191018         1.414183481255736    
    0.7577421976655658         1.399734329852354    
    0.7632731626120297         1.385347316707881    
    0.7688041275584937         1.371024275877904    
    0.7743350925049577         1.356767001118316    
    0.7798660574514217         1.342577245628933    
    0.7853970223978857         1.328456721819955    
    0.7909279873443497         1.314407101100868    
    0.7964589522908136         1.300430013691350    
    0.8019899172372776         1.286527048453721    
    0.8075208821837416         1.272699752746472    
    0.8130518471302056         1.258949632298428    
    0.8185828120766696         1.245278151103043    
    0.8241137770231336         1.231686731332377    
    0.8296447419695976         1.218176753270242    
    0.8351757069160616         1.204749555264074    
    0.8407066718625256         1.191406433695012    
    0.8462376368089896         1.178148642965731    
    0.8517686017554535         1.164977395505540    
    0.8572995667019175         1.151893861792276    
    0.8628305316483814         1.138899170390533    
    0.8683614965948454         1.125994408005755    
    0.8738924615413094         1.113180619553761    
    0.8794234264877734         1.100458808245246    
    0.8849543914342374         1.087829935684833    
    0.8904853563807014         1.075294921984259    
    0.8960163213271654         1.062854645889277    
    0.9015472862736293         1.050509944919896    
    0.9070782512200933         1.038261615523557    
    0.9126092161665573         1.026110413240894    
    0.9181401811130213         1.014057052883720    
    0.9236711460594853         1.002102208724890    
    0.9292021110059493        0.9902465146997276    
    0.9347330759524133        0.9784905646187100    
    0.9402640408988773        0.9668349123910914    
    0.9457950058453413        0.9552800722592203    
    0.9513259707918053        0.9438265190432544    
    0.9568569357382692        0.9324746883960500    
    0.9623879006847331        0.9212249770679681    
    0.9679188656311971        0.9100777431813933    
    0.9734498305776611        0.8990333065147531    
    0.9789807955241251        0.8880919487958426    
    0.9845117604705891        0.8772539140042792    
    0.9900427254170531        0.8665194086829191    
    0.9955736903635171        0.8558886022580771    
     1.001104655309981        0.8453616273684162    
     1.006635620256445        0.8349385802023604    
     1.012166585202909        0.8246195208439147    
     1.017697550149373        0.8144044736267869    
     1.023228515095837        0.8042934274966941    
     1.028759480042301        0.7942863363817551    
     1.034290444988765        0.7843831195708971    
     1.039821409935229        0.7745836621001650    
     1.045352374881693        0.7648878151468772    
     1.050883339828157        0.7552953964315426    
     1.056414304774621        0.7458061906274637    
     1.061945269721085        0.7364199497779605    
     1.067476234667549        0.7271363937211558    
     1.073007199614013        0.7179552105222359    
     1.078538164560477        0.7088760569131345    
     1.084069129506941        0.6998985587395725    
     1.089600094453405        0.6910223114153747    
     1.095131059399869        0.6822468803839913    
     1.100662024346333        0.6735718015871666    
     1.106192989292797        0.6649965819406514    
     1.111723954239261        0.6565206998168915    
     1.117254919185725        0.6481436055346004    
     1.122785884132189        0.6398647218551097    
     1.128316849078653        0.6316834444854249    
     1.133847814025117        0.6235991425878389    
     1.139378778971581        0.6156111592960253    
     1.144909743918045        0.6077188122374600    
     1.150440708864509        0.5999213940588681    
     1.155971673810973        0.5922181722468662    
     1.161502638757437        0.5846083901180317    
     1.167033603703901        0.5770912679679638    
     1.172564568650365        0.5696660032476274    
     1.178095533596829        0.5623317712097643    
     1.183626498543292        0.5550877257909730    
     1.189157463489757        0.5479330003450467    
     1.194688428436220        0.5408667068830150    
     1.200219393382685        0.5338879356883683    
     1.205750358329148        0.5269957574473665    
     1.211281323275613        0.5201892285962555    
     1.216812288222076        0.5134673974876589    
     1.222343253168540        0.5068293109604185    
     1.227874218115004        0.5002740203618142    
     1.233405183061468        0.4938005854794156    
     1.238936148007932        0.4874080744297054    
     1.244467112954396        0.4810955622064033    
     1.249998077900860        0.4748621299869906    
     1.255529042847324        0.4687068656391514    
     1.261060007793788        0.4626288641507148    
     1.266590972740252        0.4566272277177403    
     1.272121937686716        0.4507010657634062    
     1.277652902633180        0.4448494950102027    
     1.283183867579644        0.4390716395517637    
     1.288714832526108        0.4333666309162048    
     1.294245797472572        0.4277336081219293    
     1.299776762419036        0.4221717177268225    
     1.305307727365500        0.4166801138711486    
     1.310838692311964        0.4112579583144416    
     1.316369657258428        0.4059044204666943    
     1.321900622204892        0.4006186774141109    
     1.327431587151356        0.3953999139396955    
     1.332962552097820        0.3902473225389321    
     1.338493517044284        0.3851601034307928    
     1.344024481990748        0.3801374645643186    
     1.349555446937212        0.3751786216209861    
     1.355086411883676        0.3702827980130817    
     1.360617376830140        0.3654492248782866    
     1.366148341776604        0.3606771410706674    
     1.371679306723068        0.3559657931482633    
     1.377210271669532        0.3513144353574485    
     1.382741236615996        0.3467223296142425    
     1.388272201562460        0.3421887454827344    
     1.393803166508924        0.3377129601507791    
     1.399334131455388        0.3332942584031147    
     1.404865096401852        0.3289319325920494    
     1.410396061348316        0.3246252826058558    
     1.415927026294780        0.3203736158349999    
     1.421457991241244        0.3161762471363430    
     1.426988956187708        0.3120324987954218    
     1.432519921134172        0.3079417004869434    
     1.438050886080636        0.3039031892335821    
     1.443581851027100        0.2999163093632086    
     1.449112815973564        0.2959804124646337    
     1.454643780920028        0.2920948573419729    
     1.460174745866492        0.2882590099677267    
     1.465705710812956        0.2844722434346544    
     1.471236675759420        0.2807339379065443    
     1.476767640705884        0.2770434805679348    
     1.482298605652348        0.2734002655728958    
     1.487829570598812        0.2698036939929154    
     1.493360535545276        0.2662531737639779    
     1.498891500491740        0.2627481196329021    
     1.504422465438204        0.2592879531029897    
     1.509953430384668        0.2558721023790635    
     1.515484395331132        0.2525000023119383    
     1.521015360277596        0.2491710943423890    
     1.526546325224059        0.2458848264446695    
     1.532077290170524        0.2426406530696240    
     1.537608255116987        0.2394380350874498    
     1.543139220063451        0.2362764397301537    
     1.548670185009915        0.2331553405337456    
     1.554201149956379        0.2300742172802072    
     1.559732114902843        0.2270325559392783    
     1.565263079849307        0.2240298486101038    
     1.570794044795771        0.2210655934627760    
     1.576325009742235        0.2181392946797970    
     1.581855974688699        0.2152504623974904    
     1.587386939635163        0.2123986126474101    
     1.592917904581627        0.2095832672977700    
     1.598448869528091        0.2068039539949245    
     1.603979834474555        0.2040602061049148    
     1.609510799421019        0.2013515626551124    
     1.615041764367483        0.1986775682759890    
     1.620572729313947        0.1960377731430230    
     1.626103694260411        0.1934317329187775    
     1.631634659206875        0.1908590086951619    
     1.637165624153339        0.1883191669358978    
     1.642696589099803        0.1858117794192051    
     1.648227554046267        0.1833364231807290    
     1.653758518992731        0.1808926804567249    
     1.659289483939195        0.1784801386275048    
     1.664820448885659        0.1760983901611766    
     1.670351413832123        0.1737470325576747    
     1.675882378778587        0.1714256682931059    
     1.681413343725051        0.1691339047644095    
     1.686944308671515        0.1668713542343550    
     1.692475273617979        0.1646376337768811    
     1.698006238564443        0.1624323652227854    
     1.703537203510907        0.1602551751057766    
     1.709068168457371        0.1581056946088929    
     1.714599133403835        0.1559835595112996    
     1.720130098350299        0.1538884101354701    
     1.725661063296763        0.1518198912947550    
     1.731192028243227        0.1497776522413502    
     1.736722993189691        0.1477613466146635    
     1.742253958136155        0.1457706323900893    
     1.747784923082619        0.1438051718281969    
     1.753315888029083        0.1418646314243280    
     1.758846852975547        0.1399486818586209    
     1.764377817922011        0.1380569979464489    
     1.769908782868475        0.1361892585892911    
     1.775439747814939        0.1343451467260257    
     1.780970712761403        0.1325243492846567    
     1.786501677707867        0.1307265571344719    
     1.792032642654331        0.1289514650386321    
     1.797563607600795        0.1271987716071982    
     1.803094572547259        0.1254681792505924    
     1.808625537493723        0.1237593941334971    
     1.814156502440187        0.1220721261291899    
     1.819687467386651        0.1204060887743161    
     1.825218432333115        0.1187609992240998    
     1.830749397279579        0.1171365782079912    
     1.836280362226043        0.1155325499857498    
     1.841811327172507        0.1139486423039660    
     1.847342292118971        0.1123845863530164    
     1.852873257065434        0.1108401167244548    
     1.858404222011899        0.1093149713688349    
     1.863935186958362        0.1078088915539670    
     1.869466151904827        0.1063216218236033    
     1.874997116851290        0.1048529099565551    
     1.880528081797755        0.1034025069262329    
     1.886059046744218        0.1019701668606167    
     1.891590011690683        0.1005556470026467    
     1.897120976637146        0.9915870767103635E-01
     1.902651941583611        0.9777911222150489E-01
     1.908182906530074        0.9641662700842632E-01
     1.913713871476538        0.9507102134689478E-01
     1.919244836423002        0.9374206747519802E-01
     1.924775801369466        0.9242954051770462E-01
     1.930306766315930        0.9113321844815725E-01
     1.935837731262394        0.8985288205336792E-01
     1.941368696208858        0.8858831489731694E-01
     1.946899661155322        0.8733930328565087E-01
     1.952430626101786        0.8610563623057436E-01
     1.957961591048250        0.8488710541613657E-01
     1.963492555994714        0.8368350516390656E-01
     1.969023520941178        0.8249463239903657E-01
     1.974554485887642        0.8132028661670740E-01
     1.980085450834106        0.8016026984895684E-01
     1.985616415780570        0.7901438663188327E-01
     1.991147380727034        0.7788244397322583E-01
     1.996678345673498        0.7676425132031379E-01
     2.002209310619962        0.7565962052838578E-01
     2.007740275566426        0.7456836582927258E-01
     2.013271240512890        0.7349030380044133E-01
     2.018802205459354        0.7242525333439855E-01
     2.024333170405818        0.7137303560844846E-01
     2.029864135352282        0.7033347405480102E-01
     2.035395100298746        0.6930639433102978E-01
     2.040926065245210        0.6829162429087572E-01
     2.046457030191674        0.6728899395538908E-01
     2.051987995138138        0.6629833548441283E-01
     2.057518960084602        0.6531948314840096E-01
     2.063049925031066        0.6435227330056519E-01
     2.068580889977530        0.6339654434935320E-01
     2.074111854923994        0.6245213673125161E-01
     2.079642819870458        0.6151889288390790E-01
     2.085173784816922        0.6059665721957303E-01
     2.090704749763386        0.5968527609885921E-01
     2.096235714709850        0.5878459780480673E-01
     2.101766679656314        0.5789447251726196E-01
     2.107297644602778        0.5701475228755983E-01
     2.112828609549242        0.5614529101350581E-01
     2.118359574495706        0.5528594441465955E-01
     2.123890539442170        0.5443657000791259E-01
     2.129421504388634        0.5359702708335672E-01
     2.134952469335098        0.5276717668044345E-01
     2.140483434281562        0.5194688156442812E-01
     2.146014399228026        0.5113600620309546E-01
     2.151545364174490        0.5033441674376670E-01
     2.157076329120954        0.4954198099058067E-01
     2.162607294067417        0.4875856838204884E-01
     2.168138259013882        0.4798404996888040E-01
     2.173669223960346        0.4721829839207397E-01
     2.179200188906810        0.4646118786127301E-01
     2.184731153853273        0.4571259413338157E-01
     2.190262118799738        0.4497239449143876E-01
     2.195793083746202        0.4424046772374705E-01
     2.201324048692666        0.4351669410325210E-01
     2.206855013639129        0.4280095536717206E-01
     2.212385978585594        0.4209313469687243E-01
     2.217916943532058        0.4139311669798341E-01
     2.223447908478521        0.4070078738075799E-01
     2.228978873424985        0.4001603414066635E-01
     2.234509838371449        0.3933874573922493E-01
     2.240040803317914        0.3866881228505824E-01
     2.245571768264377        0.3800612521518636E-01
     2.251102733210841        0.3735057727654172E-01
     2.256633698157305        0.3670206250770688E-01
     2.262164663103770        0.3606047622087371E-01
     2.267695628050233        0.3542571498402017E-01
     2.273226592996697        0.3479767660330186E-01
     2.278757557943161        0.3417626010565680E-01
     2.284288522889625        0.3356136572161914E-01
     2.289819487836089        0.3295289486834078E-01
     2.295350452782553        0.3235075013281782E-01
     2.300881417729017        0.3175483525531803E-01
     2.306412382675481        0.3116505511300906E-01
     2.311943347621945        0.3058131570378406E-01
     2.317474312568409        0.3000352413027986E-01
     2.323005277514873        0.2943158858409002E-01
     2.328536242461337        0.2886541833016559E-01
     2.334067207407801        0.2830492369140432E-01
     2.339598172354265        0.2775001603342456E-01
     2.345129137300729        0.2720060774952114E-01
     2.350660102247193        0.2665661224580321E-01
     2.356191067193657        0.2611794392650770E-01
     2.361722032140121        0.2558451817949099E-01
     2.367252997086585        0.2505625136189188E-01
     2.372783962033049        0.2453306078596696E-01
     2.378314926979513        0.2401486470509489E-01
     2.383845891925977        0.2350158229994675E-01
     2.389376856872441        0.2299313366482201E-01
     2.394907821818905        0.2248943979414584E-01
     2.400438786765369        0.2199042256912754E-01
     2.405969751711833        0.2149600474457765E-01
     2.411500716658297        0.2100610993587962E-01
     2.417031681604761        0.2052066260611718E-01
     2.422562646551225        0.2003958805335243E-01
     2.428093611497689        0.1956281239805566E-01
     2.433624576444153        0.1909026257068083E-01
     2.439155541390617        0.1862186629938935E-01
     2.444686506337081        0.1815755209791702E-01
     2.450217471283545        0.1769724925358261E-01
     2.455748436230009        0.1724088781543771E-01
     2.461279401176473        0.1678839858255417E-01
     2.466810366122937        0.1633971309244826E-01
     2.472341331069401        0.1589476360963919E-01
     2.477872296015865        0.1545348311434160E-01
     2.483403260962329        0.1501580529128682E-01
     2.488934225908793        0.1458166451867555E-01
     2.494465190855257        0.1415099585725607E-01
     2.499996155801721        0.1372373503952995E-01
     2.505527120748185        0.1329981846045956E-01
     2.511058085694649        0.1287918324587818E-01
     2.516589050641113        0.1246176820622429E-01
     2.522120015587577        0.1204751808262189E-01
     2.527650980534041        0.1163639289482929E-01
     2.533181945480504        0.1122838066461029E-01
     2.538712910426968        0.1082350967091905E-01
     2.544243875373433        0.1042185719521939E-01
     2.549774840319897        0.1002355358768941E-01
     2.555305805266360        0.9628781932916910E-02
     2.560836770212824        0.9237774290153012E-02
     2.566367735159289        0.8850805634266868E-02
     2.571898700105752        0.8468186496689619E-02
     2.577429665052216        0.8090255082466217E-02
     2.582960629998680        0.7717369414178533E-02
     2.588491594945145        0.7349899863952750E-02
     2.594022559891608        0.6988222289845491E-02
     2.599553524838072        0.6632711888793174E-02
     2.605084489784536        0.6283737807062600E-02
     2.610615454731001        0.5941658502593035E-02
     2.616146419677464        0.5606817824786121E-02
     2.621677384623928        0.5279541760763061E-02
     2.627208349570392        0.4960135788833218E-02
     2.632739314516856        0.4648882777035766E-02
     2.638270279463320        0.4346041365093394E-02
     2.643801244409784        0.4051844770580850E-02
     2.649332209356248        0.3766499963594531E-02
     2.654863174302712        0.3490187158083466E-02
     2.660394139249176        0.3223059571790169E-02
     2.665925104195640        0.2965243410138196E-02
     2.671456069142104        0.2716838032069448E-02
     2.676987034088568        0.2477916257479981E-02
     2.682517999035032        0.2248524776087616E-02
     2.688048963981496        0.2028684615648200E-02
     2.693579928927960        0.1818391622340394E-02
     2.699110893874424        0.1617616895978806E-02
     2.704641858820888        0.1426307104087818E-02
     2.710172823767352        0.1244384565305859E-02
     2.715703788713816        0.1071746931274281E-02
     2.721234753660280        0.9082661801149302E-03
     2.726765718606744        0.7537864031132115E-03
     2.732296683553208        0.6081193705859474E-03
     2.737827648499672        0.4710356978550242E-03
     2.743358613446136        0.3422463268183280E-03
     2.748889578392600        0.2213591436868809E-03
     2.754420543339064        0.1077537732859755E-03
     2.759951508285528         0.000000000000000    
  0  3  1  0  1.000000   #orbital l, n, z, is_polarized, population
 500    0.1881989827723733E-01     9.391129240341426     # npts, delta, cutoff
     0.000000000000000        0.6778447440826435    
    0.1881989827723733E-01    0.6773788068269212    
    0.3763979655447466E-01    0.6760127563582287    
    0.5645969483171198E-01    0.6737403113085259    
    0.7527959310894931E-01    0.6705679167113882    
    0.9409949138618665E-01    0.6665045831519387    
    0.1129193896634240        0.6615618706766639    
    0.1317392879406613        0.6557538676130149    
    0.1505591862178986        0.6490971625828965    
    0.1693790844951359        0.6416108084702707    
    0.1881989827723733        0.6333162770957073    