<preamble>

<basis_specs>
===============================================================================
Nb                   Z=  41    Mass=  92.906        Charge= 0.17977+309
Lmxo=2 Lmxkb= 2    BasisType=split      Semic=T
L=0  Nsemic=1  Cnfigmx=5
          i=1  nzeta=1  polorb=0  (4s)  (semicore shell)
            splnorm:   0.15000    
               vcte:    40.000    
               rinn:    2.8758    
               qcoe:    0.0000    
               qyuk:    0.0000    
               qwid:   0.10000E-01
                rcs:    3.1954    
            lambdas:    1.0000    
          i=2  nzeta=2  polorb=0  (5s)  (to be polarized non-perturbatively)
            splnorm:   0.15000    
               vcte:    40.000    
               rinn:    7.5555    
               qcoe:    0.0000    
               qyuk:    0.0000    
               qwid:   0.10000E-01
                rcs:    8.3950      6.1608    
            lambdas:    1.0000      1.0000    
L=1  Nsemic=1  Cnfigmx=5
          i=1  nzeta=1  polorb=0  (4p)  (semicore shell)
            splnorm:   0.15000    
               vcte:    40.000    
               rinn:    3.3160    
               qcoe:    0.0000    
               qyuk:    0.0000    
               qwid:   0.10000E-01
                rcs:    3.6844    
            lambdas:    1.0000    
          i=2  nzeta=1  polorb=0  (5p)  (non-perturbative polarization shell)
            splnorm:   0.15000    
               vcte:    40.000    
               rinn:    7.5631    
               qcoe:    0.0000    
               qyuk:    0.0000    
               qwid:   0.10000E-01
                rcs:    8.3950    
            lambdas:    1.0000    
L=2  Nsemic=0  Cnfigmx=4
          i=1  nzeta=2  polorb=0  (4d)
            splnorm:   0.15000    
               vcte:    40.000    
               rinn:    5.9953    
               qcoe:    0.0000    
               qyuk:    0.0000    
               qwid:   0.10000E-01
                rcs:    6.6547      4.4664    
            lambdas:    1.0000      1.0000    
-------------------------------------------------------------------------------
L=0  Nkbl=2  erefs: 0.17977+309 0.17977+309
L=1  Nkbl=2  erefs: 0.17977+309 0.17977+309
L=2  Nkbl=1  erefs: 0.17977+309
===============================================================================
</basis_specs>

<pseudopotential_header>
 Nb pw nrl pcec
 ONCVPSP-3.2018-03-09Hamann's oncvpsp                        
 4s 2.00  r= 1.51/4p 6.00  r= 1.40/4d 4.00  r= 1.40/                    4s:4p:4d:5s:
</pseudopotential_header>
</preamble>
Nb                            # Symbol
Nb                            # Label
   41                         # Atomic number
     13.0000000000                             # Valence charge
     92.9060000000        # Mass 
     211.772668533        # Self energy 
   2   7                      # Lmax for basis, no. of nl orbitals 
   2   6                      # Lmax for projectors, no. of nl KB projectors
# PAOs:__________________________
  0  4  1  0  2.000000   #orbital l, n, z, is_polarized, population
 500    0.6403561776500132E-02     3.195377326473566     # npts, delta, cutoff
     0.000000000000000        0.1764610077673672    
    0.6403561776500132E-02    0.1766205851827975    
    0.1280712355300026E-01    0.1771106404234467    
    0.1921068532950040E-01    0.1779269953367705    
    0.2561424710600053E-01    0.1790690371471392    
    0.3201780888250066E-01    0.1805359105658147    
    0.3842137065900079E-01    0.1823265176004378    
    0.4482493243550092E-01    0.1844395184457569    
    0.5122849421200106E-01    0.1868733327080014    
    0.5763205598850119E-01    0.1896261408784488    
    0.6403561776500132E-01    0.1926958860378392    
    0.7043917954150145E-01    0.1960802757850827    
    0.7684274131800159E-01    0.1997767843864781    
    0.8324630309450172E-01    0.2037826551423357    
    0.8964986487100185E-01    0.2080949029679750    
    0.9605342664750198E-01    0.2127103171859812    
    0.1024569884240021        0.2176254645264127    
    0.1088605502005022        0.2228366923314450    
    0.1152641119770024        0.2283401319607466    
    0.1216676737535025        0.2341317023936435    
    0.1280712355300026        0.2402071140239335    
    0.1344747973065028        0.2465618726429953    
    0.1408783590830029        0.2531912836066389    
    0.1472819208595030        0.2600904561809378    
    0.1536854826360032        0.2672543080620940    
    0.1600890444125033        0.2746775700651974    
    0.1664926061890034        0.2823547909765593    
    0.1728961679655036        0.2902803425641266    
    0.1792997297420037        0.2984484247403101    
    0.1857032915185038        0.3068530708714002    
    0.1921068532950040        0.3154881532275924    
    0.1985104150715041        0.3243473885674962    
    0.2049139768480042        0.3334243438508599    
    0.2113175386245044        0.3427124420731222    
    0.2177211004010045        0.3522049682152646    
    0.2241246621775046        0.3618950753023434    
    0.2305282239540047        0.3717757905639626    
    0.2369317857305049        0.3818400216898573    
    0.2433353475070050        0.3920805631736644    
    0.2497389092835051        0.4024901027378959    
    0.2561424710600053        0.4130612278330370    
    0.2625460328365054        0.4237864322036547    
    0.2689495946130055        0.4346581225143366    
    0.2753531563895057        0.4456686250282474    
    0.2817567181660058        0.4568101923310499    
    0.2881602799425059        0.4680750100929342    
    0.2945638417190061        0.4794552038614505    
    0.3009674034955062        0.4909428458778837    
    0.3073709652720064        0.5025299619098718    
    0.3137745270485064        0.5142085380930064    
    0.3201780888250066        0.5259705277741807    
    0.3265816506015067        0.5378078583494645    
    0.3329852123780069        0.5497124380893503    
    0.3393887741545070        0.5616761629442493    
    0.3457923359310071        0.5736909233231849    
    0.3521958977075073        0.5857486108386974    
    0.3585994594840074        0.5978411250110491    
    0.3650030212605075        0.6099603799249077    
    0.3714065830370076        0.6220983108317789    
    0.3778101448135078        0.6342468806915599    
    0.3842137065900079        0.6463980866466990    
    0.3906172683665081        0.6585439664225579    
    0.3970208301430082        0.6706766046477071    
    0.4034243919195083        0.6827881390880086    
    0.4098279536960084        0.6948707667884871    
    0.4162315154725086        0.7069167501171342    
    0.4226350772490087        0.7189184227049391    
    0.4290386390255088        0.7308681952766083    
    0.4354422008020090        0.7427585613666001    
    0.4418457625785091        0.7545821029152568    
    0.4482493243550092        0.7663314957400108    
    0.4546528861315093        0.7779995148768361    
    0.4610564479080095        0.7895790397872496    
    0.4674600096845096        0.8010630594264351    
    0.4738635714610098        0.8124446771681939    
    0.4802671332375099        0.8237171155826559    
    0.4866706950140100        0.8348737210629046    
    0.4930742567905101        0.8459079682968313    
    0.4994778185670103        0.8568134645807892    
    0.5058813803435104        0.8675839539718189    
    0.5122849421200105        0.8782133212754124    
    0.5186885038965107        0.8886955958660403    
    0.5250920656730108        0.8990249553378442    
    0.5314956274495110        0.9091957289831581    
    0.5378991892260111        0.9192024010967191    
    0.5443027510025112        0.9290396141036643    
    0.5507063127790114        0.9387021715096230    
    0.5571098745555114        0.9481850406714752    
    0.5635134363320116        0.9574833553875065    
    0.5699169981085117        0.9665924183059826    
    0.5763205598850119        0.9755077031513614    
    0.5827241216615120        0.9842248567675543    
    0.5891276834380121        0.9927397009779425    
    0.5955312452145123         1.001048234261996    
    0.6019348069910124         1.009146633248613    
    0.6083383687675126         1.017031254026498    
    0.6147419305440127         1.024698633272101    
    0.6211454923205127         1.032145489195873    
    0.6275490540970129         1.039368722307764    
    0.6339526158735130         1.046365416003155    
    0.6403561776500132         1.053132836970530    
    0.6467597394265133         1.059668435422490    
    0.6531633012030135         1.065969845151818    
    0.6595668629795136         1.072034883414527    
    0.6659704247560138         1.077861550642044    
    0.6723739865325139         1.083448029984788    
    0.6787775483090139         1.088792686689612    
    0.6851811100855141         1.093894067313790    
    0.6915846718620142         1.098750898778293    
    0.6979882336385144         1.103362087263359    
    0.7043917954150145         1.107726716949437    
    0.7107953571915147         1.111844048606796    
    0.7171989189680148         1.115713518037161    
    0.7236024807445149         1.119334734370935    
    0.7300060425210151         1.122707478223645    
    0.7364096042975151         1.125831699715426    
    0.7428131660740153         1.128707516357387    
    0.7492167278505154         1.131335210808905    
    0.7556202896270156         1.133715228509941    
    0.7620238514035157         1.135848175192550    
    0.7684274131800158         1.137734814275906    
    0.7748309749565160         1.139376064149187    
    0.7812345367330161         1.140772995346760    
    0.7876380985095163         1.141926827620178    
    0.7940416602860163         1.142838926911550    
    0.8004452220625164         1.143510802232899    
    0.8068487838390166         1.143944102456181    
    0.8132523456155167         1.144140613018656    
    0.8196559073920169         1.144102252548342    
    0.8260594691685170         1.143831069414332    
    0.8324630309450172         1.143329238206718    
    0.8388665927215173         1.142599056150939    
    0.8452701544980175         1.141642939461320    
    0.8516737162745175         1.140463419638617    
    0.8580772780510176         1.139063139716321    
    0.8644808398275178         1.137444850460518    
    0.8708844016040179         1.135611406528021    
    0.8772879633805181         1.133565762587510    
    0.8836915251570182         1.131310969408368    
    0.8900950869335184         1.128850169921842    
    0.8964986487100185         1.126186595259134    
    0.9029022104865186         1.123323560770988    
    0.9093057722630187         1.120264462033250    
    0.9157093340395188         1.117012770842835    
    0.9221128958160190         1.113572031208480    
    0.9285164575925191         1.109945855340567    
    0.9349200193690193         1.106137925408688    
    0.9413235811455194         1.102151991810478    
    0.9477271429220195         1.097991827490489    
    0.9541307046985197         1.093661277445659    
    0.9605342664750198         1.089164235002302    
    0.9669378282515199         1.084504637838428    
    0.9733413900280200         1.079686464080516    
    0.9797449518045201         1.074713728430648    
    0.9861485135810203         1.069590478327506    
    0.9925520753575204         1.064320790144570    
    0.9989556371340206         1.058908765428795    
     1.005359198910521         1.053358527182888    
     1.011762760687021         1.047674216194236    
     1.018166322463521         1.041859987413366    
     1.024569884240021         1.035920006384762    
     1.030973446016521         1.029858445732681    
     1.037377007793021         1.023679481704542    
     1.043780569569521         1.017387290774300    
     1.050184131346022         1.010986046308132    
     1.056587693122522         1.004479915294606    
     1.062991254899022        0.9978730551413907    
     1.069394816675522        0.9911696105404617    
     1.075798378452022        0.9843737104036063    
     1.082201940228522        0.9774894648699168    
     1.088605502005022        0.9705209623868575    
     1.095009063781523        0.9634722668663409    
     1.101412625558023        0.9563474149171453    
     1.107816187334523        0.9491504131548870    
     1.114219749111023        0.9418852355906391    
     1.120623310887523        0.9345558210991624    
     1.127026872664023        0.9271660709676230    
     1.133430434440523        0.9197198465255310    
     1.139833996217023        0.9122209668565435    
     1.146237557993524        0.9046732065926600    
     1.152641119770024        0.8970802937912232    
     1.159044681546524        0.8894459078950507    
     1.165448243323024        0.8817736777759051    
     1.171851805099524        0.8740671798614218    
     1.178255366876024        0.8663299363455096    
     1.184658928652524        0.8585654134821524    
     1.191062490429025        0.8507770199624451    
     1.197466052205525        0.8429681053746066    
     1.203869613982025        0.8351419587466365    
     1.210273175758525        0.8273018071711955    
     1.216676737535025        0.8194508145122058    
     1.223080299311525        0.8115920801926020    
     1.229483861088025        0.8037286380625915    
     1.235887422864525        0.7958634553476996    
     1.242290984641025        0.7879994316758311    
     1.248694546417526        0.7801393981824979    
     1.255098108194026        0.7722861166933237    
     1.261501669970526        0.7644422789828648    
     1.267905231747026        0.7566105061087377    
     1.274308793523526        0.7487933478200057    
     1.280712355300026        0.7409932820387245    
     1.287115917076527        0.7332127144134962    
     1.293519478853027        0.7254539779438660    
     1.299923040629527        0.7177193326743320    
     1.306326602406027        0.7100109654567283    
     1.312730164182527        0.7023309897797069    
     1.319133725959027        0.6946814456640048    
     1.325537287735527        0.6870642996221882    
     1.331940849512028        0.6794814446815036    
     1.338344411288528        0.6719347004685017    
     1.344747973065028        0.6644258133540297    
     1.351151534841528        0.6569564566572195    
     1.357555096618028        0.6495282309070639    
     1.363958658394528        0.6421426641601792    
     1.370362220171028        0.6348012123733439    
     1.376765781947528        0.6275052598293925    
     1.383169343724028        0.6202561196150627    
     1.389572905500529        0.6130550341493765    
     1.395976467277029        0.6059031757611524    
     1.402380029053529        0.5988016473142377    
     1.408783590830029        0.5917514828790765    
     1.415187152606529        0.5847536484492264    
     1.421590714383029        0.5778090427014340    
     1.427994276159529        0.5709184977979204    
     1.434397837936030        0.5640827802295241    
     1.440801399712530        0.5573025916983518    
     1.447204961489030        0.5505785700386191    
     1.453608523265530        0.5439112901743796    
     1.460012085042030        0.5373012651002034    
     1.466415646818530        0.5307489468026533    
     1.472819208595030        0.5242547275096069    
     1.479222770371530        0.5178189411074091    
     1.485626332148031        0.5114418644401646    
     1.492029893924531        0.5051237170313709    
     1.498433455701031        0.4988646612235113    
     1.504837017477531        0.4926648042636810    
     1.511240579254031        0.4865242038995198    
     1.517644141030531        0.4804428749629788    
     1.524047702807031        0.4744207966791588    
     1.530451264583532        0.4684579194955378    
     1.536854826360032        0.4625541715819196    
     1.543258388136532        0.4567094629023742    
     1.549661949913032        0.4509236844981198    
     1.556065511689532        0.4451967075201159    
     1.562469073466032        0.4395283836917063    
     1.568872635242532        0.4339185465853369    
     1.575276197019033        0.4283670127979202    
     1.581679758795532        0.4228735827274341    
     1.588083320572033        0.4174380412513894    
     1.594486882348533        0.4120601584548285    
     1.600890444125033        0.4067396903445260    
     1.607294005901533        0.4014763795400474    
     1.613697567678033        0.3962699559399072    
     1.620101129454533        0.3911201373653202    
     1.626504691231033        0.3860266301821839    
     1.632908253007534        0.3809891299019233    
     1.639311814784034        0.3760073217617984    
     1.645715376560534        0.3710808812852792    
     1.652118938337034        0.3662094748230565    
     1.658522500113534        0.3613927600752608    
     1.664926061890034        0.3566303865954423    
     1.671329623666534        0.3519219962768391    
     1.677733185443035        0.3472672238214753    
     1.684136747219535        0.3426656971925752    
     1.690540308996035        0.3381170380508201    
     1.696943870772535        0.3336208621749027    
     1.703347432549035        0.3291767798668778    
     1.709750994325535        0.3247843963427461    
     1.716154556102035        0.3204433121087375    
     1.722558117878535        0.3161531233237188    
     1.728961679655036        0.3119134221481473    
     1.735365241431536        0.3077237970799987    
     1.741768803208036        0.3035838332780509    
     1.748172364984536        0.2994931128729270    
     1.754575926761036        0.2954512152662775    
     1.760979488537536        0.2914577174184656    
     1.767383050314036        0.2875121941251143    
     1.773786612090537        0.2836142182828788    
     1.780190173867037        0.2797633611447597    
     1.786593735643537        0.2759591925653133    
     1.792997297420037        0.2722012812360615    
     1.799400859196537        0.2684891949114189    
     1.805804420973037        0.2648225006254474    
     1.812207982749537        0.2612007648997198    
     1.818611544526037        0.2576235539425888    
     1.825015106302537        0.2540904338401341    
     1.831418668079038        0.2506009707390650    
     1.837822229855538        0.2471547310218243    
     1.844225791632038        0.2437512814741706    
     1.850629353408538        0.2403901894454681    
     1.857032915185038        0.2370710230019313    
     1.863436476961538        0.2337933510730569    
     1.869840038738039        0.2305567435914704    
     1.876243600514539        0.2273607716264049    
     1.882647162291039        0.2242050075110222    
     1.889050724067539        0.2210890249637896    
     1.895454285844039        0.2180123992041122    
     1.901857847620539        0.2149747070624050    
     1.908261409397039        0.2119755270848072    
     1.914664971173540        0.2090144396327163    
     1.921068532950040        0.2060910269773135    
     1.927472094726540        0.2032048733892639    
     1.933875656503040        0.2003555652237501    
     1.940279218279540        0.1975426910010032    
     1.946682780056040        0.1947658414824931    
     1.953086341832540        0.1920246097429191    
     1.959489903609040        0.1893185912381604    
     1.965893465385540        0.1866473838693238    
     1.972297027162041        0.1840105880430266    
     1.978700588938541        0.1814078067280515    
     1.985104150715041        0.1788386455084998    
     1.991507712491541        0.1763027126335752    
     1.997911274268041        0.1737996190641150    
     2.004314836044541        0.1713289785159894    
     2.010718397821041        0.1688904075004840    
     2.017121959597541        0.1664835253617732    
     2.023525521374042        0.1641079543115987    
     2.029929083150542        0.1617633194612500    
     2.036332644927042        0.1594492488509524    
     2.042736206703542        0.1571653734767625    
     2.049139768480042        0.1549113273150540    
     2.055543330256542        0.1526867473447026    
     2.061946892033042        0.1504912735670449    
     2.068350453809543        0.1483245490237029    
     2.074754015586043        0.1461862198123592    
     2.081157577362543        0.1440759351005553    
     2.087561139139043        0.1419933471376003    
     2.093964700915543        0.1399381112646594    
     2.100368262692043        0.1379098859230971    
     2.106771824468543        0.1359083326611445    
     2.113175386245044        0.1339331161389603    
     2.119578948021544        0.1319839041321491    
     2.125982509798044        0.1300603675338058    
     2.132386071574544        0.1281621803551387    
     2.138789633351044        0.1262890197247420    
     2.145193195127544        0.1244405658865664    
     2.151596756904044        0.1226165021966485    
     2.158000318680545        0.1208165151186511    
     2.164403880457045        0.1190402942182660    
     2.170807442233545        0.1172875321565322    
     2.177211004010045        0.1155579246821137    
     2.183614565786545        0.1138511706225879    
     2.190018127563045        0.1121669718747900    
     2.196421689339545        0.1105050333942528    
     2.202825251116046        0.1088650631837897    
     2.209228812892546        0.1072467722812579    
     2.215632374669046        0.1056498747465439    
     2.222035936445546        0.1040740876478079    
     2.228439498222046        0.1025191310470234    
     2.234843059998546        0.1009847279848494    
     2.241246621775046        0.9947060446487009E-01
     2.247650183551546        0.9797648943722860E-01
     2.254053745328046        0.9650211478169723E-01
     2.260457307104546        0.9504721529020695E-01
     2.266860868881047        0.9361152864886679E-01
     2.273264430657547        0.9219479541950644E-01
     2.279667992434047        0.9079675902076431E-01
     2.286071554210547        0.8941716570875004E-01
     2.292475115987047        0.8805576455730815E-01
     2.298878677763547        0.8671230743790513E-01
     2.305282239540047        0.8538654899916497E-01
     2.311685801316548        0.8407824664607728E-01
     2.318089363093048        0.8278716051889726E-01
     2.324492924869548        0.8151305347176190E-01
     2.330896486646048        0.8025569105104068E-01
     2.337300048422548        0.7901484147344061E-01
     2.343703610199048        0.7779027560388678E-01
     2.350107171975548        0.7658176693319359E-01
     2.356510733752049        0.7538909155554632E-01
     2.362914295528549        0.7421202814580938E-01
     2.369317857305049        0.7305035793667712E-01
     2.375721419081549        0.7190386469568230E-01
     2.382124980858049        0.7077233470207972E-01
     2.388528542634549        0.6965555672361612E-01
     2.394932104411049        0.6855332199320145E-01
     2.401335666187550        0.6746542418549566E-01
     2.407739227964050        0.6639165939342367E-01
     2.414142789740550        0.6533182610462751E-01
     2.420546351517050        0.6428572517787247E-01
     2.426949913293550        0.6325315981941494E-01
     2.433353475070050        0.6223393555934241E-01
     2.439757036846550        0.6122786022789906E-01
     2.446160598623051        0.6023474393180378E-01
     2.452564160399551        0.5925439903057014E-01
     2.458967722176051        0.5828664011284077E-01
     2.465371283952551        0.5733128397273914E-01
     2.471774845729051        0.5638814958625225E-01
     2.478178407505551        0.5545705808764974E-01
     2.484581969282051        0.5453783274594541E-01
     2.490985531058551        0.5363029894141209E-01
     2.497389092835051        0.5273428414215318E-01
     2.503792654611551        0.5184961788073896E-01
     2.510196216388052        0.5097613173091382E-01
     2.516599778164552        0.5011365928438011E-01
     2.523003339941052        0.4926203612766406E-01
     2.529406901717552        0.4842109981906895E-01
     2.535810463494052        0.4759068986572121E-01
     2.542214025270552        0.4677064770071336E-01
     2.548617587047052        0.4596081666034935E-01
     2.555021148823553        0.4516104196149494E-01
     2.561424710600053        0.4437117067903974E-01
     2.567828272376553        0.4359105172347143E-01
     2.574231834153053        0.4282053581856820E-01
     2.580635395929553        0.4205947547921372E-01
     2.587038957706053        0.4130772498933203E-01
     2.593442519482553        0.4056514037995411E-01
     2.599846081259054        0.3983157940741130E-01
     2.606249643035554        0.3910690153166178E-01
     2.612653204812054        0.3839096789475246E-01
     2.619056766588554        0.3768364129941723E-01
     2.625460328365054        0.3698478618781448E-01
     2.631863890141554        0.3629426862040631E-01
     2.638267451918054        0.3561195625497950E-01
     2.644671013694555        0.3493771832581260E-01
     2.651074575471055        0.3427142562298648E-01
     2.657478137247555        0.3361295047184490E-01
     2.663881699024055        0.3296216671260233E-01
     2.670285260800555        0.3231894968010072E-01
     2.676688822577055        0.3168317618371840E-01
     2.683092384353555        0.3105472448742937E-01
     2.689495946130056        0.3043347429001493E-01
     2.695899507906555        0.2981930670542868E-01
     2.702303069683055        0.2921210424331371E-01
     2.708706631459556        0.2861175078967560E-01
     2.715110193236056        0.2801813158770684E-01
     2.721513755012556        0.2743113321876812E-01
     2.727917316789056        0.2685064358352262E-01
     2.734320878565556        0.2627655188322553E-01
     2.740724440342056        0.2570874860116763E-01
     2.747128002118556        0.2514712548427379E-01
     2.753531563895057        0.2459157552485572E-01
     2.759935125671557        0.2404199294251847E-01
     2.766338687448057        0.2349827316622067E-01
     2.772742249224557        0.2296031281648920E-01
     2.779145811001057        0.2242800968778487E-01
     2.785549372777557        0.2190126273102243E-01
     2.791952934554057        0.2137997203624127E-01
     2.798356496330558        0.2086403881542791E-01
     2.804760058107058        0.2035336538548857E-01
     2.811163619883558        0.1984785515137268E-01
     2.817567181660058        0.1934741258934397E-01
     2.823970743436558        0.1885194323040114E-01
     2.830374305213058        0.1836135364384579E-01
     2.836777866989558        0.1787555142099603E-01
     2.843181428766059        0.1739444515904685E-01
     2.849584990542559        0.1691794444507402E-01
     2.855988552319059        0.1644595984018283E-01
     2.862392114095559        0.1597840286379769E-01
     2.868795675872059        0.1551518597809544E-01
     2.875199237648559        0.1505622257257689E-01
     2.881602799425059        0.1460142694877897E-01
     2.888006361201560        0.1415071430512386E-01
     2.894409922978060        0.1370400072197282E-01
     2.900813484754560        0.1326120315968116E-01
     2.907217046531060        0.1282223978078211E-01
     2.913620608307560        0.1238703240227937E-01
     2.920024170084060        0.1195551414869448E-01
     2.926427731860560        0.1152764265990605E-01
     2.932831293637060        0.1110341519998324E-01
     2.939234855413560        0.1068288125429077E-01
     2.945638417190060        0.1026615005544793E-01
     2.952041978966561        0.9853392584077776E-02
     2.958445540743061        0.9444838876461442E-02
     2.964849102519561        0.9040771946239616E-02
     2.971252664296061        0.8641519612718706E-02
     2.977656226072561        0.8247445301171455E-02
     2.984059787849061        0.7858938603661257E-02
     2.990463349625561        0.7476406137673823E-02
     2.996866911402062        0.7100263039515027E-02
     3.003270473178562        0.6730925281353015E-02
     3.009674034955062        0.6368802897111332E-02
     3.016077596731562        0.6014294133116421E-02
     3.022481158508062        0.5667780495300154E-02
     3.028884720284562        0.5329622638398558E-02
     3.035288282061062        0.5000157028357627E-02
     3.041691843837563        0.4679693302952047E-02
     3.048095405614063        0.4368512254564912E-02
     3.054498967390563        0.4066864361153492E-02
     3.060902529167063        0.3774968795271064E-02
     3.067306090943563        0.3493012845698357E-02
     3.073709652720063        0.3221151691121932E-02
     3.080113214496564        0.2959508469942424E-02
     3.086516776273064        0.2708174594340093E-02
     3.092920338049564        0.2467210259865610E-02
     3.099323899826064        0.2236645103668809E-02
     3.105727461602564        0.2016478964522203E-02
     3.112131023379064        0.1806682695181930E-02
     3.118534585155564        0.1607198970950360E-02
     3.124938146932065        0.1417943025005300E-02
     3.131341708708565        0.1238803216433625E-02
     3.137745270485065        0.1069641291777654E-02
     3.144148832261565        0.9102921165443660E-03
     3.150552394038065        0.7605624887628271E-03
     3.156955955814565        0.6202283066240409E-03
     3.163359517591065        0.4890285996285434E-03
     3.169763079367565        0.3666530281672783E-03
     3.176166641144065        0.2527139392578009E-03
     3.182570202920565        0.1466747340940182E-03
     3.188973764697066        0.4759571969050498E-04
     3.195377326473566         0.000000000000000    
  0  5  1  0  1.000000   #orbital l, n, z, is_polarized, population
 500    0.1682369861993176E-01     8.395025611345947     # npts, delta, cutoff
     0.000000000000000        0.7162800890513615E-01
    0.1682369861993176E-01    0.7207058488902816E-01
    0.3364739723986351E-01    0.7339999314684618E-01