<preamble>

<basis_specs>
===============================================================================
Ni                   Z=  28    Mass=  58.693        Charge= 0.17977+309
Lmxo=2 Lmxkb= 2    BasisType=split      Semic=T
L=0  Nsemic=1  Cnfigmx=4
          i=1  nzeta=1  polorb=0  (3s)  (semicore shell)
            splnorm:   0.15000    
               vcte:    40.000    
               rinn:    2.0858    
               qcoe:    0.0000    
               qyuk:    0.0000    
               qwid:   0.10000E-01
                rcs:    2.3176    
            lambdas:    1.0000    
          i=2  nzeta=2  polorb=0  (4s)  (to be polarized non-perturbatively)
            splnorm:   0.15000    
               vcte:    40.000    
               rinn:    5.8823    
               qcoe:    0.0000    
               qyuk:    0.0000    
               qwid:   0.10000E-01
                rcs:    6.5358      4.5798    
            lambdas:    1.0000      1.0000    
L=1  Nsemic=1  Cnfigmx=4
          i=1  nzeta=1  polorb=0  (3p)  (semicore shell)
            splnorm:   0.15000    
               vcte:    40.000    
               rinn:    2.3154    
               qcoe:    0.0000    
               qyuk:    0.0000    
               qwid:   0.10000E-01
                rcs:    2.5727    
            lambdas:    1.0000    
          i=2  nzeta=1  polorb=0  (4p)  (non-perturbative polarization shell)
            splnorm:   0.15000    
               vcte:    40.000    
               rinn:    5.8882    
               qcoe:    0.0000    
               qyuk:    0.0000    
               qwid:   0.10000E-01
                rcs:    6.5358    
            lambdas:    1.0000    
L=2  Nsemic=0  Cnfigmx=3
          i=1  nzeta=2  polorb=0  (3d)
            splnorm:   0.15000    
               vcte:    40.000    
               rinn:    3.6694    
               qcoe:    0.0000    
               qyuk:    0.0000    
               qwid:   0.10000E-01
                rcs:    4.0730      2.4029    
            lambdas:    1.0000      1.0000    
-------------------------------------------------------------------------------
L=0  Nkbl=2  erefs: 0.17977+309 0.17977+309
L=1  Nkbl=2  erefs: 0.17977+309 0.17977+309
L=2  Nkbl=1  erefs: 0.17977+309
===============================================================================
</basis_specs>

<pseudopotential_header>
 Ni pw nrl pcec
 ONCVPSP-3.2020-12-01Hamann's oncvpsp                        
 3s 2.00  r= 1.26/3p 6.00  r= 1.35/3d 8.00  r= 1.66/                    3s:3p:3d:4s:
</pseudopotential_header>
</preamble>
Ni                            # Symbol
Ni                            # Label
   28                         # Atomic number
     18.0000000000                             # Valence charge
     58.6930000000        # Mass 
     424.441946017        # Self energy 
   2   7                      # Lmax for basis, no. of nl orbitals 
   2   6                      # Lmax for projectors, no. of nl KB projectors
# PAOs:__________________________
  0  3  1  0  2.000000   #orbital l, n, z, is_polarized, population
 500    0.4644452222598439E-02     2.317581659076621     # npts, delta, cutoff
     0.000000000000000         2.727217670725045    
    0.4644452222598439E-02     2.727102483374592    
    0.9288904445196878E-02     2.727001638580680    
    0.1393335666779532E-01     2.726833620345149    
    0.1857780889039376E-01     2.726598293144977    
    0.2322226111299220E-01     2.726295520250457    
    0.2786671333559063E-01     2.725925134511096    
    0.3251116555818907E-01     2.725486934352159    
    0.3715561778078751E-01     2.724980682959510    
    0.4180007000338595E-01     2.724406108205532    
    0.4644452222598439E-01     2.723762902826667    
    0.5108897444858283E-01     2.723050724718766    
    0.5573342667118127E-01     2.722269197305507    
    0.6037787889377971E-01     2.721417909962488    
    0.6502233111637815E-01     2.720496418489276    
    0.6966678333897659E-01     2.719504245625648    
    0.7431123556157503E-01     2.718440881609880    
    0.7895568778417346E-01     2.717305784777753    
    0.8360014000677191E-01     2.716098382201275    
    0.8824459222937034E-01     2.714818070366357    
    0.9288904445196879E-01     2.713464215888676    
    0.9753349667456722E-01     2.712036156267080    
    0.1021779488971657         2.710533200673828    
    0.1068224011197641         2.708954630781028    
    0.1114668533423625         2.707299701622482    
    0.1161113055649610         2.705567642490290    
    0.1207557577875594         2.703757657865416    
    0.1254002100101579         2.701868928381423    
    0.1300446622327563         2.699900611820572    
    0.1346891144553547         2.697851844141471    
    0.1393335666779532         2.695721740537302    
    0.1439780189005516         2.693509396523818    
    0.1486224711231501         2.691213889056097    
    0.1532669233457485         2.688834277673108    
    0.1579113755683469         2.686369605669056    
    0.1625558277909454         2.683818901290513    
    0.1672002800135438         2.681181178958210    
    0.1718447322361422         2.678455440512423    
    0.1764891844587407         2.675640676480812    
    0.1811336366813391         2.672735867367564    
    0.1857780889039376         2.669739984962621    
    0.1904225411265360         2.666651993669805    
    0.1950669933491344         2.663470851852585    
    0.1997114455717329         2.660195513196197    
    0.2043558977943313         2.656824928084832    
    0.2090003500169298         2.653358044992588    
    0.2136448022395282         2.649793811886779    
    0.2182892544621266         2.646131177642280    
    0.2229337066847251         2.642369093465509    
    0.2275781589073235         2.638506514326598    
    0.2322226111299220         2.634542400398344    
    0.2368670633525204         2.630475718500489    
    0.2415115155751188         2.626305443547830    
    0.2461559677977173         2.622030560000713    
    0.2508004200203157         2.617650063316373    
    0.2554448722429142         2.613162961399611    
    0.2600893244655126         2.608568276051311    
    0.2647337766881110         2.603865044413237    
    0.2693782289107094         2.599052320407558    
    0.2740226811333079         2.594129176169580    
    0.2786671333559064         2.589094703472122    
    0.2833115855785048         2.583948015139957    
    0.2879560378011032         2.578688246452798    
    0.2926004900237016         2.573314556535246    
    0.2972449422463001         2.567826129732169    
    0.3018893944688986         2.562222176967941    
    0.3065338466914970         2.556501937088036    
    0.3111782989140954         2.550664678181398    
    0.3158227511366938         2.544709698882135    
    0.3204672033592923         2.538636329648967    
    0.3251116555818908         2.532443934020979    
    0.3297561078044892         2.526131909848198    
    0.3344005600270876         2.519699690495556    
    0.3390450122496860         2.513146746018764    
    0.3436894644722845         2.506472584310764    
    0.3483339166948830         2.499676752217329    
    0.3529783689174814         2.492758836620478    
    0.3576228211400798         2.485718465488388    
    0.3622672733626783         2.478555308890531    
    0.3669117255852767         2.471269079976755    
    0.3715561778078751         2.463859535919140    
    0.3762006300304735         2.456326478815406    
    0.3808450822530720         2.448669756552791    
    0.3854895344756705         2.440889263631258    
    0.3901339866982689         2.432984941945042    
    0.3947784389208673         2.424956781521481    
    0.3994228911434657         2.416804821216231    
    0.4040673433660642         2.408529149363942    
    0.4087117955886627         2.400129904383533    
    0.4133562478112611         2.391607275337315    
    0.4180007000338595         2.382961502443176    
    0.4226451522564579         2.374192877539179    
    0.4272896044790564         2.365301744499923    
    0.4319340567016549         2.356288499604116    
    0.4365785089242533         2.347153591852854    
    0.4412229611468517         2.337897523238136    
    0.4458674133694501         2.328520848961263    
    0.4505118655920486         2.319024177600782    
    0.4551563178146470         2.309408171229717    
    0.4598007700372455         2.299673545481889    
    0.4644452222598439         2.289821069567219    
    0.4690896744824424         2.279851566235905    
    0.4737341267050408         2.269765911691533    
    0.4783785789276392         2.259565035453122    
    0.4830230311502376         2.249249920166295    
    0.4876674833728361         2.238821601363729    
    0.4923119355954346         2.228281167175162    
    0.4969563878180330         2.217629758077012    
    0.5016008400406314         2.206868566355318    
    0.5062452922632299         2.195998835566145    
    0.5108897444858284         2.185021860331663    
    0.5155341967084267         2.173938985678233    
    0.5201786489310252         2.162751606452864    
    0.5248231011536236         2.151461166692874    
    0.5294675533762221         2.140069158949464    
    0.5341120055988205         2.128577123566080    
    0.5387564578214189         2.116986647912418    
    0.5434009100440174         2.105299365574994    
    0.5480453622666158         2.093516955505307    
    0.5526898144892143         2.081641141126595    
    0.5573342667118127         2.069673689400294    
    0.5619787189344111         2.057616409853364    
    0.5666231711570096         2.045471153567624    
    0.5712676233796080         2.033239812132369    
    0.5759120756022065         2.020924316561536    
    0.5805565278248049         2.008526636176721    
    0.5852009800474033         1.996048777457432    
    0.5898454322700017         1.983492782859943    
    0.5944898844926002         1.970860729606201    
    0.5991343367151987         1.958154728444230    
    0.6037787889377971         1.945376922381527    
    0.6084232411603955         1.932529485392966    
    0.6130676933829939         1.919614621104740    
    0.6177121456055924         1.906634561455934    
    0.6223565978281909         1.893591565339261    
    0.6270010500507893         1.880487917222607    
    0.6316455022733877         1.867325925752969    
    0.6362899544959861         1.854107922344414    
    0.6409344067185846         1.840836259751705    
    0.6455788589411831         1.827513310631209    
    0.6502233111637815         1.814141466090750    
    0.6548677633863799         1.800723134230040    
    0.6595122156089783         1.787260738673331    
    0.6641566678315768         1.773756717095914    
    0.6688011200541752         1.760213519746125    
    0.6734455722767737         1.746633607964439    
    0.6780900244993721         1.733019452701292    
    0.6827344767219705         1.719373533035203    
    0.6873789289445690         1.705698334692799    
    0.6920233811671674         1.691996348572268    
    0.6966678333897659         1.678270069271810    
    0.7013122856123644         1.664521993624578    
    0.7059567378349627         1.650754619241603    
    0.7106011900575612         1.636970443064172    
    0.7152456422801596         1.623171959927073    
    0.7198900945027581         1.609361661134119    
    0.7245345467253566         1.595542033047311    
    0.7291789989479549         1.581715555690972    
    0.7338234511705534         1.567884701372136    
    0.7384679033931518         1.554051933318462    
    0.7431123556157503         1.540219704334876    
    0.7477568078383487         1.526390455480116    
    0.7524012600609471         1.512566614764308    
    0.7570457122835456         1.498750595868663    
    0.7616901645061440         1.484944796888342    
    0.7663346167287425         1.471151599099457    
    0.7709790689513409         1.457373365751197    
    0.7756235211739393         1.443612440883947    
    0.7802679733965378         1.429871148174252    
    0.7849124256191362         1.416151789807462    
    0.7895568778417347         1.402456645378763    
    0.7942013300643331         1.388787970823346    
    0.7988457822869315         1.375147997376313    
    0.8034902345095299         1.361538930562985    
    0.8081346867321284         1.347962949220110    
    0.8127791389547269         1.334422204548500    
    0.8174235911773253         1.320918819197546    
    0.8220680433999237         1.307454886382006    
    0.8267124956225221         1.294032469031425    
    0.8313569478451206         1.280653598972477    
    0.8360014000677191         1.267320276144502    
    0.8406458522903175         1.254034467848422    
    0.8452903045129159         1.240798108029202    
    0.8499347567355143         1.227613096591975    
    0.8545792089581128         1.214481298751878    
    0.8592236611807113         1.201404544417629    
    0.8638681134033097         1.188384627608821    
    0.8685125656259081         1.175423305906854    
    0.8731570178485065         1.162522299939399    
    0.8778014700711050         1.149683292898249    
    0.8824459222937034         1.136907930090356    
    0.8870903745163019         1.124197818521819    
    0.8917348267389003         1.111554526514570    
    0.8963792789614987         1.098979583355445    
    0.9010237311840972         1.086474478977291    
    0.9056681834066956         1.074040663671763    
    0.9103126356292941         1.061679547833380    
    0.9149570878518926         1.049392501734424    
    0.9196015400744909         1.037180855330211    
    0.9242459922970894         1.025045898094245    
    0.9288904445196878         1.012988878882743    
    0.9335348967422863         1.001011005827985    
    0.9381793489648848        0.9891134462599315    
    0.9428238011874831        0.9772973266555200    
    0.9474682534100816        0.9655637326150448    
    0.9521127056326800        0.9539137088649889    
    0.9567571578552785        0.9423482592866814    
    0.9614016100778769        0.9308683469701113    
    0.9660460623004753        0.9194748942922549    
    0.9706905145230738        0.9081687830192188    
    0.9753349667456722        0.8969508544315232    
    0.9799794189682707        0.8858219094718195    
    0.9846238711908691        0.8747827089143473    
    0.9892683234134675        0.8638339735554051    
    0.9939127756360659        0.8529763844241475    
    0.9985572278586644        0.8422105830129628    
     1.003201680081263        0.8315371715267177    
     1.007846132303861        0.8209567131501622    
     1.012490584526460        0.8104697323327588    
     1.017135036749058        0.8000767150902292    
     1.021779488971657        0.7897781093220909    
     1.026423941194255        0.7795743251444843    
     1.031068393416853        0.7694657352375807    
     1.035712845639452        0.7594526752068632    
     1.040357297862050        0.7495354439576072    
     1.045001750084649        0.7397143040818505    
     1.049646202307247        0.7299894822572037    
     1.054290654529846        0.7203611696568063    
     1.058935106752444        0.7108295223698120    
     1.063579558975043        0.7013946618317218    
     1.068224011197641        0.6920566752639511    
     1.072868463420239        0.6828156161220250    
     1.077512915642838        0.6736715045517607    
     1.082157367865436        0.6646243278528942    
     1.086801820088035        0.6556740409495261    
     1.091446272310633        0.6468205668668614    
     1.096090724533232        0.6380637972136799    
     1.100735176755830        0.6294035926700065    
     1.105379628978429        0.6208397834794787    
     1.110024081201027        0.6123721699458942    
     1.114668533423625        0.6040005229334799    
     1.119312985646224        0.5957245843703940    
     1.123957437868822        0.5875440677550318    
     1.128601890091421        0.5794586586647005    
     1.133246342314019        0.5714680152662356    
     1.137890794536618        0.5635717688281888    
     1.142535246759216        0.5557695242341804    
     1.147179698981814        0.5480608604970760    
     1.151824151204413        0.5404453312736284    
     1.156468603427011        0.5329224653792766    
     1.161113055649610        0.5254917673027546    
     1.165757507872208        0.5181527177202712    
     1.170401960094807        0.5109047740089258    
     1.175046412317405        0.5037473707591479    
     1.179690864540003        0.4966799202858856    
     1.184335316762602        0.4897018131383346    
     1.188979768985200        0.4828124186079783    
     1.193624221207799        0.4760110852347675    
     1.198268673430397        0.4692971413112300    
     1.202913125652996        0.4626698953843698    
     1.207557577875594        0.4561286367551937    
     1.212202030098193        0.4496726359757239    
     1.216846482320791        0.4433011453433759    
     1.221490934543390        0.4370133993539004    
     1.226135386765988        0.4308086151168671    
     1.230779838988586        0.4246859930768009    
     1.235424291211185        0.4186447176870710    
     1.240068743433783        0.4126839581595724    
     1.244713195656382        0.4068028678858183    
     1.249357647878980        0.4010005840447197    
     1.254002100101579        0.3952762277521965    
     1.258646552324177        0.3896289065408537    
     1.263291004546775        0.3840577182757025    
     1.267935456769374        0.3785617552895877    
     1.272579908991972        0.3731401087070969    
     1.277224361214571        0.3677918725063807    
     1.281868813437169        0.3625161471181053    
     1.286513265659768        0.3573120417939413    
     1.291157717882366        0.3521786743881115    
     1.295802170104964        0.3471151707284885    
     1.300446622327563        0.3421206635261655    
     1.305091074550161        0.3371942925419185    
     1.309735526772760        0.3323352048609685    
     1.314379978995358        0.3275425551570708    
     1.319024431217957        0.3228155057894932    
     1.323668883440555        0.3181532267582328    
     1.328313335663154        0.3135548957356504    
     1.332957787885752        0.3090196980958923    
     1.337602240108350        0.3045468269411985    
     1.342246692330949        0.3001354829183094    
     1.346891144553547        0.2957848743188270    
     1.351535596776146        0.2914942173632852    
     1.356180048998744        0.2872627360644974    
     1.360824501221343        0.2830896622310705    
     1.365468953443941        0.2789742354662766    
     1.370113405666540        0.2749157031632639    
     1.374757857889138        0.2709133204967840    
     1.379402310111736        0.2669663504115973    
     1.384046762334335        0.2630740636077196    
     1.388691214556933        0.2592357385226686    
     1.393335666779532        0.2554506613108469    
     1.397980119002130        0.2517181258202168    
     1.402624571224729        0.2480374335663943    
     1.407269023447327        0.2444078937042973    
     1.411913475669925        0.2408288229974800    
     1.416557927892524        0.2372995457852623    
     1.421202380115122        0.2338193939477892    
     1.425846832337721        0.2303877068691158    
     1.430491284560319        0.2270038313984429    
     1.435135736782918        0.2236671218095933    
     1.439780189005516        0.2203769397588344    
     1.444424641228115        0.2171326542411469    
     1.449069093450713        0.2139336415450291    
     1.453713545673311        0.2107792852059227    
     1.458357997895910        0.2076689759583525    
     1.463002450118508        0.2046021116868531    
     1.467646902341107        0.2015780973757707    
     1.472291354563705        0.1985963450580084    
     1.476935806786304        0.1956562737627943    
     1.481580259008902        0.1927573094625307    
     1.486224711231501        0.1898988850188065    
     1.490869163454099        0.1870804401276233    
     1.495513615676697        0.1843014212639062    
     1.500158067899296        0.1815612816253518    
     1.504802520121894        0.1788594810756730    
     1.509446972344493        0.1761954860872953    
     1.514091424567091        0.1735687696835552    
     1.518735876789690        0.1709788113804483    
     1.523380329012288        0.1684250971279797    
     1.528024781234886        0.1659071192511583    
     1.532669233457485        0.1634243763906800    
     1.537313685680083        0.1609763734433435    
     1.541958137902682        0.1585626215022297    
     1.546602590125280        0.1561826377966989    
     1.551247042347879        0.1538359456322252    
     1.555891494570477        0.1515220743301151    
     1.560535946793076        0.1492405591671375    
     1.565180399015674        0.1469909413150981    
     1.569824851238272        0.1447727677803910    
     1.574469303460871        0.1425855913435519    
     1.579113755683469        0.1404289704988440    
     1.583758207906068        0.1383024693939015    
     1.588402660128666        0.1362056577694575    
     1.593047112351265        0.1341381108991749    
     1.597691564573863        0.1320994095296113    
     1.602336016796462        0.1300891398203305    
     1.606980469019060        0.1281068932841892    
     1.611624921241658        0.1261522667278111    
     1.616269373464257        0.1242248621922724    
     1.620913825686855        0.1223242868940132    
     1.625558277909454        0.1204501531659928    
     1.630202730132052        0.1186020783991025    
     1.634847182354651        0.1167796849838537    
     1.639491634577249        0.1149826002523547    
     1.644136086799847        0.1132104564205835    
     1.648780539022446        0.1114628905309799    
     1.653424991245044        0.1097395443953633    
     1.658069443467643        0.1080400645381797    
     1.662713895690241        0.1063641021401023    
     1.667358347912840        0.1047113129819840    
     1.672002800135438        0.1030813573891778    
     1.676647252358036        0.1014739001762326    
     1.681291704580635        0.9988861059196746E-01
     1.685936156803233        0.9832516226493608E-01
     1.690580609025832        0.9678323314928676E-01
     1.695225061248430        0.9526250547102426E-01
     1.699869513471029        0.9376266567468125E-01
     1.704513965693627        0.9228340437040346E-01
     1.709158417916226        0.9082441628145543E-01
     1.713802870138824        0.8938540019214547E-01
     1.718447322361423        0.8796605889617912E-01
     1.723091774584021        0.8656609914544471E-01
     1.727736226806619        0.8518523159923139E-01
     1.732380679029218        0.8382317077388594E-01
     1.737025131251816        0.8247963499290813E-01
     1.741669583474415        0.8115434633748915E-01
     1.746314035697013        0.7984703059749404E-01
     1.750958487919612        0.7855741722288875E-01
     1.755602940142210        0.7728523927561590E-01
     1.760247392364808        0.7603023338191764E-01
     1.764891844587407        0.7479213968510731E-01
     1.769536296810005        0.7357070179879208E-01
     1.774180749032604        0.7236566676054307E-01
     1.778825201255202        0.7117678498601818E-01
     1.783469653477801        0.7000381022353237E-01
     1.788114105700399        0.6884649950907855E-01
     1.792758557922997        0.6770461312179744E-01
     1.797403010145596        0.6657791453989477E-01
     1.802047462368194        0.6546617039700620E-01
     1.806691914590793        0.6436915043900872E-01
     1.811336366813391        0.6328662748127564E-01
     1.815980819035990        0.6221837736637600E-01
     1.820625271258588        0.6116417892221539E-01
     1.825269723481187        0.6012381392061660E-01
     1.829914175703785        0.5909706703633877E-01
     1.834558627926383        0.5808372580653248E-01
     1.839203080148982        0.5708358059062820E-01
     1.843847532371580        0.5609642453065856E-01
     1.848491984594179        0.5512205351200734E-01
     1.853136436816777        0.5416026612458703E-01
     1.857780889039376        0.5321086362444143E-01
     1.862425341261974        0.5227364989576745E-01
     1.867069793484573        0.5134843141335898E-01
     1.871714245707171        0.5043501720546477E-01
     1.876358697929770        0.4953321881706043E-01
     1.881003150152368        0.4864285027353111E-01
     1.885647602374966        0.4776372804476038E-01
     1.890292054597565        0.4689567100962438E-01
     1.894936506820163        0.4603850042088661E-01
     1.899580959042762        0.4519203987048996E-01
     1.904225411265360        0.4435611525524453E-01
     1.908869863487958        0.4353055474290461E-01
     1.913514315710557        0.4271518873863699E-01
     1.918158767933155        0.4190984985186875E-01
     1.922803220155754        0.4111437286352066E-01
     1.927447672378352        0.4032859469361591E-01
     1.932092124600951        0.3955235436926243E-01
     1.936736576823549        0.3878549299300694E-01
     1.941381029046148        0.3802785371155522E-01
     1.946025481268746        0.3727928168485532E-01
     1.950669933491344        0.3653962405554155E-01
     1.955314385713943        0.3580872991873293E-01
     1.959958837936541        0.3508645029218636E-01
     1.964603290159140        0.3437263808679523E-01
     1.969247742381738        0.3366714807743675E-01
     1.973892194604337        0.3296983687415788E-01
     1.978536646826935        0.3228056289370012E-01
     1.983181099049534        0.3159918633135810E-01
     1.987825551272132        0.3092556913316836E-01
     1.992470003494730        0.3025957496842559E-01
     1.997114455717329        0.2960106920251999E-01
     2.001758907939927        0.2894991887009533E-01
     2.006403360162526        0.2830599264852183E-01
     2.011047812385124        0.2766916083168024E-01
     2.015692264607722        0.2703929530405583E-01
     2.020336716830321        0.2641626951513487E-01
     2.024981169052920        0.2579995845410290E-01
     2.029625621275518        0.2519023862483927E-01
     2.034270073498116        0.2458698802120481E-01
     2.038914525720715        0.2399008610262143E-01
     2.043558977943313        0.2339941376993437E-01
     2.048203430165912        0.2281485334156000E-01
     2.052847882388510        0.2223628852990986E-01
     2.057492334611108        0.2166360441809192E-01
     2.062136786833707        0.2109668743688182E-01
     2.066781239056306        0.2053542534196313E-01
     2.071425691278904        0.1997970719143265E-01
     2.076070143501502        0.1942942332356444E-01
     2.080714595724101        0.1888446533483377E-01
     2.085359047946699        0.1834472605819288E-01
     2.090003500169298        0.1781009954159903E-01
     2.094647952391896        0.1728048102678681E-01
     2.099292404614495        0.1675576692834516E-01
     2.103936856837093        0.1623585482446087E-01
     2.108581309059691        0.1572064373575401E-01
     2.113225761282290        0.1521003630071051E-01
     2.117870213504888        0.1470394559713981E-01
     2.122514665727487        0.1420230696491336E-01
     2.127159117950085        0.1370509161579610E-01
     2.131803570172683        0.1321231811183987E-01
     2.136448022395282        0.1272405941525188E-01
     2.141092474617881        0.1224044507342639E-01
     2.145736926840479        0.1176165924713609E-01
     2.150381379063077        0.1128793571830929E-01
     2.155025831285676        0.1081955100786098E-01
     2.159670283508274        0.1035681653817143E-01
     2.164314735730873        0.9900070533340967E-02
     2.168959187953471        0.9449670130430559E-02
     2.173603640176069        0.9005983999269718E-02
     2.178248092398668        0.8569385638555662E-02
     2.182892544621267        0.8140247425077258E-02
     2.187536996843865        0.7718935432228672E-02
     2.192181449066463        0.7305804995424579E-02
     2.196825901289062        0.6901196979064193E-02
     2.201470353511660        0.6505434687328544E-02
     2.206114805734259        0.6118821355740740E-02
     2.210759257956857        0.5741638159517080E-02
     2.215403710179455        0.5374142676511780E-02
     2.220048162402054        0.5016567745814438E-02
     2.224692614624652        0.4669120666949860E-02
     2.229337066847251        0.4331982688610145E-02
     2.233981519069849        0.4005308739477846E-02
     2.238625971292448        0.3689227356659730E-02
     2.243270423515046        0.3383840769182629E-02
     2.247914875737644        0.3089225094509910E-02
     2.252559327960243        0.2805430604478341E-02
     2.257203780182842        0.2532482012467991E-02
     2.261848232405440        0.2270378724289177E-02
     2.266492684628038        0.2019094978219139E-02
     2.271137136850637        0.1778579769274803E-02
     2.275781589073235        0.1548756398439820E-02
     2.280426041295834        0.1329521387274509E-02
     2.285070493518432        0.1120742304693508E-02
     2.289714945741030        0.9222536547258931E-03
     2.294359397963629        0.7338490865410910E-03
     2.299003850186228        0.5552659827707182E-03
     2.303648302408826        0.3861521253809377E-03
     2.308292754631424        0.2259809860693782E-03
     2.312937206854023        0.7375806903677418E-04
     2.317581659076621         0.000000000000000    
  0  4  1  0  2.000000   #orbital l, n, z, is_polarized, population
 500    0.1309787680932152E-01     6.535840527851437     # npts, delta, cutoff
     0.000000000000000         1.257749628848118    
    0.1309787680932152E-01     1.257315673788883    
    0.2619575361864303E-01     1.256126732617214    