<preamble>

<basis_specs>
===============================================================================
O                    Z=   8    Mass=  15.999        Charge= 0.17977+309
Lmxo=2 Lmxkb= 2    BasisType=split      Semic=F
L=0  Nsemic=0  Cnfigmx=2
          i=1  nzeta=2  polorb=0  (2s)
            splnorm:   0.15000    
               vcte:    40.000    
               rinn:    3.3934    
               qcoe:    0.0000    
               qyuk:    0.0000    
               qwid:   0.10000E-01
                rcs:    3.7666      2.3646    
            lambdas:    1.0000      1.0000    
L=1  Nsemic=0  Cnfigmx=2
          i=1  nzeta=2  polorb=1  (2p)  (to be polarized perturbatively)
            splnorm:   0.15000    
               vcte:    40.000    
               rinn:    4.1550    
               qcoe:    0.0000    
               qyuk:    0.0000    
               qwid:   0.10000E-01
                rcs:    4.6120      2.8788    
            lambdas:    1.0000      1.0000    
L=2  Nsemic=0  Cnfigmx=3
          i=1  nzeta=0  polorb=0  (3d)  (perturbative polarization orbital) (from 2p)
-------------------------------------------------------------------------------
L=0  Nkbl=1  erefs: 0.17977+309
L=1  Nkbl=1  erefs: 0.17977+309
L=2  Nkbl=1  erefs: 0.17977+309
===============================================================================
</basis_specs>

<pseudopotential_header>
 O  pw nrl pcec
 ONCVPSP-3.2020-12-01Hamann's oncvpsp                        
 2s 2.00  r= 1.36/2p 4.00  r= 1.46/3d 0.00  r= 1.36/                    2s:2p:
</pseudopotential_header>
</preamble>
O                             # Symbol
O                             # Label
    8                         # Atomic number
     6.00000000000                             # Valence charge
     15.9990000000        # Mass 
     47.8818340106        # Self energy 
   2   5                      # Lmax for basis, no. of nl orbitals 
   2   5                      # Lmax for projectors, no. of nl KB projectors
# PAOs:__________________________
  0  2  1  0  2.000000   #orbital l, n, z, is_polarized, population
 500    0.7548339581813212E-02     3.766621451324792     # npts, delta, cutoff
     0.000000000000000         1.360859478316969    
    0.7548339581813212E-02     1.360867501080666    
    0.1509667916362642E-01     1.360932237639275    
    0.2264501874543964E-01     1.361039892204069    
    0.3019335832725285E-01     1.361190083039143    
    0.3774169790906606E-01     1.361382281819856    
    0.4529003749087927E-01     1.361615811325482    
    0.5283837707269248E-01     1.361889845907716    
    0.6038671665450569E-01     1.362203412482062    
    0.6793505623631890E-01     1.362555391792478    
    0.7548339581813211E-01     1.362944519900058    
    0.8303173539994532E-01     1.363369389883023    
    0.9058007498175855E-01     1.363828453744419    
    0.9812841456357176E-01     1.364320024526688    
    0.1056767541453850         1.364842278633241    
    0.1132250937271982         1.365393258357469    
    0.1207734333090114         1.365970874619671    
    0.1283217728908246         1.366572909912252    
    0.1358701124726378         1.367197021453374    
    0.1434184520544510         1.367840744549006    
    0.1509667916362642         1.368501496162951    
    0.1585151312180774         1.369176578694127    
    0.1660634707998906         1.369863183959914    
    0.1736118103817039         1.370558397383940    
    0.1811601499635171         1.371259202386175    
    0.1887084895453303         1.371962484972622    
    0.1962568291271435         1.372665038521357    
    0.2038051687089567         1.373363568760969    
    0.2113535082907699         1.374054698936889    
    0.2189018478725831         1.374734975160293    
    0.2264501874543964         1.375400871933665    
    0.2339985270362095         1.376048797846291    
    0.2415468666180228         1.376675101432243    
    0.2490952061998360         1.377276077182652    
    0.2566435457816492         1.377847971703293    
    0.2641918853634624         1.378386990007761    
    0.2717402249452756         1.378889301935743    
    0.2792885645270888         1.379351048685170    
    0.2868369041089021         1.379768349446290    
    0.2943852436907152         1.380137308125015    
    0.3019335832725284         1.380454020142215    
    0.3094819228543417         1.380714579295019    
    0.3170302624361549         1.380915084665561    
    0.3245786020179681         1.381051647562085    
    0.3321269415997813         1.381120398476830    
    0.3396752811815945         1.381117494044638    
    0.3472236207634077         1.381039123985936    
    0.3547719603452210         1.380881518017315    
    0.3623202999270342         1.380640952712800    
    0.3698686395088474         1.380313758298642    
    0.3774169790906606         1.379896325364435    
    0.3849653186724738         1.379385111473294    
    0.3925136582542870         1.378776647653897    
    0.4000619978361002         1.378067544757375    
    0.4076103374179134         1.377254499662183    
    0.4151586769997266         1.376334301310451    
    0.4227070165815399         1.375303836559651    
    0.4302553561633531         1.374160095833904    
    0.4378036957451663         1.372900178559777    
    0.4453520353269795         1.371521298372030    
    0.4529003749087927         1.370020788075476    
    0.4604487144906059         1.368396104349869    
    0.4679970540724191         1.366644832185553    
    0.4755453936542323         1.364764689038499    
    0.4830937332360455         1.362753528694301    
    0.4906420728178588         1.360609344831704    
    0.4981904123996720         1.358330274277276    
    0.5057387519814852         1.355914599943915    
    0.5132870915632984         1.353360753447040    
    0.5208354311451115         1.350667317393416    
    0.5283837707269248         1.347833027338782    
    0.5359321103087380         1.344856773411624    
    0.5434804498905512         1.341737601601625    
    0.5510287894723644         1.338474714712559    
    0.5585771290541777         1.335067472980560    
    0.5661254686359909         1.331515394359913    
    0.5736738082178041         1.327818154479652    
    0.5812221477996173         1.323975586275456    
    0.5887704873814305         1.319987679302352    
    0.5963188269632437         1.315854578734920    
    0.6038671665450569         1.311576584062633    
    0.6114155061268701         1.307154147489022    
    0.6189638457086833         1.302587872044240    
    0.6265121852904966         1.297878509421494    
    0.6340605248723098         1.293026957548608    
    0.6416088644541230         1.288034257906734    
    0.6491572040359362         1.282901592608886    
    0.6567055436177494         1.277630281251561    
    0.6642538831995626         1.272221777553264    
    0.6718022227813758         1.266677665794132    
    0.6793505623631890         1.260999657071268    
    0.6868989019450022         1.255189585384654    
    0.6944472415268155         1.249249403568690    
    0.7019955811086287         1.243181179084562    
    0.7095439206904419         1.236987089688620    
    0.7170922602722551         1.230669418991984    
    0.7246405998540684         1.224230552135278    
    0.7321889394358815         1.217672973116531    
    0.7397372790176947         1.210999252972589    
    0.7472856185995079         1.204212052685073    
    0.7548339581813212         1.197314115766892    
    0.7623822977631344         1.190308263483924    
    0.7699306373449476         1.183197390058803    
    0.7774789769267608         1.175984457877122    
    0.7850273165085740         1.168672492707773    
    0.7925756560903873         1.161264578948466    
    0.8001239956722004         1.153763854906810    
    0.8076723352540136         1.146173508126587    
    0.8152206748358268         1.138496770768153    
    0.8227690144176401         1.130736915051113    
    0.8303173539994533         1.122897248766647    
    0.8378656935812665         1.114981110866123    
    0.8454140331630797         1.106991867131821    
    0.8529623727448929         1.098932905934843    
    0.8605107123267062         1.090807634084536    
    0.8680590519085193         1.082619472772989    
    0.8756073914903325         1.074371853617481    
    0.8831557310721457         1.066068214803033    
    0.8907040706539590         1.057711997326579    
    0.8982524102357722         1.049306641343639    
    0.9058007498175854         1.040855582617787    
    0.9133490893993986         1.032362249072664    
    0.9208974289812119         1.023830057445796    
    0.9284457685630251         1.015262410043008    
    0.9359941081448382         1.006662691591838    
    0.9435424477266514        0.9980342661919938    
    0.9510907873084646        0.9893804743606129    
    0.9586391268902779        0.9807046301698066    
    0.9661874664720911        0.9720100184738151    
    0.9737358060539043        0.9632998922229380    
    0.9812841456357175        0.9545774698613144    
    0.9888324852175308        0.9458459328056003    
    0.9963808247993440        0.9371084230015951    
     1.003929164381157        0.9283680405559268    
     1.011477503962970        0.9196278414400150    
     1.019025843544784        0.9108908352636614    
     1.026574183126597        0.9021599831158260    
     1.034122522708410        0.8934381954703332    
     1.041670862290223        0.8847283301545316    
     1.049219201872036        0.8760331903791956    
     1.056767541453850        0.8673555228282626    
     1.064315881035663        0.8586980158073220    
     1.071864220617476        0.8500632974501077    
     1.079412560199289        0.8414539339826032    
     1.086960899781102        0.8328724280447068    
     1.094509239362916        0.8243212170697841    
     1.102057578944729        0.8158026717227718    
     1.109605918526542        0.8073190943978514    
     1.117154258108355        0.7988727177770618    
     1.124702597690169        0.7904657034515176    
     1.132250937271982        0.7821001406072391    
     1.139799276853795        0.7737780447778517    
     1.147347616435608        0.7655013566667013    
     1.154895956017421        0.7572719406875159    
     1.162444295599235        0.7490915820664995    
     1.169992635181048        0.7409619891053770    
     1.177540974762861        0.7328847916625053    
     1.185089314344674        0.7248615400920598    
     1.192637653926487        0.7168937045440392    
     1.200185993508301        0.7089826743559816    
     1.207734333090114        0.7011297575397973    
     1.215282672671927        0.6933361803670555    
     1.222831012253740        0.6856030870559565    
     1.230379351835553        0.6779315395630605    
     1.237927691417367        0.6703225174826937    
     1.245476030999180        0.6627769180566966    
     1.253024370580993        0.6552955562969506    
     1.260572710162806        0.6478791652228094    
     1.268121049744620        0.6405283962152587    
     1.275669389326433        0.6332438194892609    
     1.283217728908246        0.6260259246853762    
     1.290766068490059        0.6188751215813513    
     1.298314408071872        0.6117917409239424    
     1.305862747653686        0.6047760353808163    
     1.313411087235499        0.5978281805841502    
     1.320959426817312        0.5909482762086226    
     1.328507766399125        0.5841363477763708    
     1.336056105980938        0.5773923486045146    
     1.343604445562752        0.5707161589664776    
     1.351152785144565        0.5641075859971888    
     1.358701124726378        0.5575663719238766    
     1.366249464308191        0.5510922090738517    
     1.373797803890004        0.5446847564749892    
     1.381346143471818        0.5383436552173785    
     1.388894483053631        0.5320685368517647    
     1.396442822635444        0.5258590225265236    
     1.403991162217257        0.5197147207026726    
     1.411539501799071        0.5136352282579129    
     1.419087841380884        0.5076201319504285    
     1.426636180962697        0.5016690090825315    
     1.434184520544510        0.4957814280850758    
     1.441732860126324        0.4899569491574993    
     1.449281199708137        0.4841951248835885    
     1.456829539289950        0.4784955008182096    
     1.464377878871763        0.4728576160480741    
     1.471926218453576        0.4672810037275967    
     1.479474558035389        0.4617651915908594    
     1.487022897617203        0.4563097024406040    
     1.494571237199016        0.4509140546151842    
     1.502119576780829        0.4455777624343822    
     1.509667916362642        0.4403003366249147    
     1.517216255944456        0.4350812847264472    
     1.524764595526269        0.4299201114788997    
     1.532312935108082        0.4248163191918040    
     1.539861274689895        0.4197694080964287    
     1.547409614271708        0.4147788766813700    
     1.554957953853522        0.4098442220122788    
     1.562506293435335        0.4049649400363604    
     1.570054633017148        0.4001405258722686    
     1.577602972598961        0.3953704740859850    
     1.585151312180775        0.3906542789532542    
     1.592699651762588        0.3859914347091217    
     1.600247991344401        0.3813814357850990    
     1.607796330926214        0.3768237770344637    
     1.615344670508027        0.3723179539461809    
     1.622893010089840        0.3678634628479096    
     1.630441349671654        0.3634598010985434    
     1.637989689253467        0.3591064672707168    
     1.645538028835280        0.3548029613236958    
     1.653086368417093        0.3505487847670397    
     1.660634707998907        0.3463434408154261    
     1.668183047580720        0.3421864345350025    
     1.675731387162533        0.3380772729816175    
     1.683279726744346        0.3340154653312720    
     1.690828066326159        0.3300005230031111    
     1.698376405907973        0.3260319597752776    
     1.705924745489786        0.3221092918939236    
     1.713473085071599        0.3182320381756648    
     1.721021424653412        0.3143997201037615    
     1.728569764235225        0.3106118619182927    
     1.736118103817039        0.3068679907005714    
     1.743666443398852        0.3031676364520580    
     1.751214782980665        0.2995103321680060    
     1.758763122562478        0.2958956139060503    
     1.766311462144291        0.2923230208499717    
     1.773859801726105        0.2887920953688592    
     1.781408141307918        0.2853023830718521    
     1.788956480889731        0.2818534328586549    
     1.796504820471544        0.2784447969660112    
     1.804053160053358        0.2750760310103285    
     1.811601499635171        0.2717466940266062    
     1.819149839216984        0.2684563485038512    
     1.826698178798797        0.2652045604171155    
     1.834246518380610        0.2619908992563321    
     1.841794857962424        0.2588149380520720    
     1.849343197544237        0.2556762533983803    
     1.856891537126050        0.2525744254728113    
     1.864439876707863        0.2495090380538028    
     1.871988216289676        0.2464796785355041    
     1.879536555871490        0.2434859379401819    
     1.887084895453303        0.2405274109283179    
     1.894633235035116        0.2376036958065015    
     1.902181574616929        0.2347143945332328    
     1.909729914198742        0.2318591127227234    
     1.917278253780556        0.2290374596468080    
     1.924826593362369        0.2262490482350402    
     1.932374932944182        0.2234934950730819    
     1.939923272525995        0.2207704203994517    
     1.947471612107809        0.2180794481007333    
     1.955019951689622        0.2154202057053050    
     1.962568291271435        0.2127923243756802    
     1.970116630853248        0.2101954388995203    
     1.977664970435062        0.2076291876793962    
     1.985213310016875        0.2050932127213628    
     1.992761649598688        0.2025871596224069    
     2.000309989180501        0.2001106775568371    
     2.007858328762314        0.1976634192616665    
     2.015406668344128        0.1952450410210485    
     2.022955007925941        0.1928552026498205    
     2.030503347507754        0.1904935674762016    
     2.038051687089567        0.1881598023237019    
     2.045600026671381        0.1858535774922837    
     2.053148366253194        0.1835745667388214    
     2.060696705835007        0.1813224472569107    
     2.068245045416820        0.1790968996560527    
     2.075793384998633        0.1768976079402740    
     2.083341724580446        0.1747242594862013    
     2.090890064162259        0.1725765450206399    
     2.098438403744073        0.1704541585976853    
     2.105986743325886        0.1683567975754036    
     2.113535082907699        0.1662841625921093    
     2.121083422489512        0.1642359575422778    
     2.128631762071326        0.1622118895521139    
     2.136180101653139        0.1602116689548092    
     2.143728441234952        0.1582350092655166    
     2.151276780816765        0.1562816271560609    
     2.158825120398578        0.1543512424294159    
     2.166373459980392        0.1524435779939708    
     2.173921799562205        0.1505583598376048    
     2.181470139144018        0.1486953170015929    
     2.189018478725831        0.1468541815543664    
     2.196566818307645        0.1450346885651415    
     2.204115157889458        0.1432365760774387    
     2.211663497471271        0.1414595850825106    
     2.219211837053084        0.1397034594926919    
     2.226760176634897        0.1379679461146922    
     2.234308516216711        0.1362527946228402    
     2.241856855798524        0.1345577575323037    
     2.249405195380337        0.1328825901722870    
     2.256953534962150        0.1312270506592299    
     2.264501874543964        0.1295908998700148    
     2.272050214125777        0.1279739014151938    
     2.279598553707590        0.1263758216122519    
     2.287146893289403        0.1247964294589088    
     2.294695232871216        0.1232354966064792    
     2.302243572453030        0.1216927973332923    
     2.309791912034843        0.1201681085181871    
     2.317340251616656        0.1186612096140870    
     2.324888591198469        0.1171718826216622    
     2.332436930780283        0.1156999120630934    
     2.339985270362096        0.1142450849559357    
     2.347533609943909        0.1128071907870964    
     2.355081949525722        0.1113860214869293    
     2.362630289107535        0.1099813714034539    
     2.370178628689348        0.1085930372767041    
     2.377726968271161        0.1072208182132119    
     2.385275307852975        0.1058645156606321    
     2.392823647434788        0.1045239333825123    
     2.400371987016601        0.1031988774332114    
     2.407920326598414        0.1018891561329732    
     2.415468666180228        0.1005945800431581    
     2.423017005762041        0.9931496194163521E-01
     2.430565345343854        0.9805011679834094E-01
     2.438113684925667        0.9679986175100359E-01
     2.445662024507480        0.9556401608104104E-01
     2.453210364089294        0.9434240118963093E-01
     2.460758703671107        0.9313484057395854E-01
     2.468307043252920        0.9194115980364094E-01
     2.475855382834733        0.9076118649733397E-01
     2.483403722416547        0.8959475029952062E-01
     2.490952061998360        0.8844168285748379E-01
     2.498500401580173        0.8730181779846549E-01
     2.506048741161986        0.8617499070701251E-01
     2.513597080743800        0.8506103910251062E-01
     2.521145420325613        0.8395980241690965E-01
     2.528693759907426        0.8287112197263663E-01
     2.536242099489239        0.8179484096070241E-01
     2.543790439071052        0.8073080441899912E-01
     2.551338778652866        0.7967885921079071E-01
     2.558887118234679        0.7863885400339582E-01
     2.566435457816492        0.7761063924706489E-01
     2.573983797398305        0.7659406715404955E-01
     2.581532136980119        0.7558899167786760E-01
     2.589080476561932        0.7459526849275865E-01
     2.596628816143745        0.7361275497333598E-01
     2.604177155725558        0.7264131017443121E-01
     2.611725495307371        0.7168079481113099E-01
     2.619273834889185        0.7073107123900779E-01
     2.626822174470997        0.6979200343454246E-01
     2.634370514052811        0.6886345697573919E-01
     2.641918853634624        0.6794529902293130E-01
     2.649467193216437        0.6703739829977887E-01
     2.657015532798250        0.6613962507445513E-01
     2.664563872380064        0.6525185114102340E-01
     2.672112211961877        0.6437394980100242E-01
     2.679660551543690        0.6350579584511892E-01
     2.687208891125503        0.6264726553524881E-01
     2.694757230707316        0.6179823658654192E-01
     2.702305570289130        0.6095858814973321E-01
     2.709853909870943        0.6012820079363961E-01
     2.717402249452756        0.5930695648783602E-01
     2.724950589034569        0.5849473858551677E-01
     2.732498928616383        0.5769143180653653E-01
     2.740047268198196        0.5689692222063042E-01
     2.747595607780009        0.5611109723081354E-01
     2.755143947361822        0.5533384555695758E-01
     2.762692286943635        0.5456505721954297E-01
     2.770240626525449        0.5380462352358642E-01
     2.777788966107262        0.5305243704274185E-01
     2.785337305689075        0.5230839160357346E-01
     2.792885645270888        0.5157238226999994E-01
     2.800433984852702        0.5084430532790812E-01
     2.807982324434515        0.5012405826993501E-01
     2.815530664016328        0.4941153978041656E-01
     2.823079003598141        0.4870664972050234E-01
     2.830627343179954        0.4800928911343370E-01
     2.838175682761768        0.4731936012998531E-01
     2.845724022343581        0.4663676607406799E-01
     2.853272361925394        0.4596141136849103E-01
     2.860820701507207        0.4529320154088319E-01
     2.868369041089021        0.4463204320977131E-01
     2.875917380670834        0.4397784407081360E-01
     2.883465720252647        0.4333051288318782E-01
     2.891014059834460        0.4268995945613244E-01
     2.898562399416273        0.4205609463563813E-01
     2.906110738998086        0.4142883029129001E-01
     2.913659078579899        0.4080807930325812E-01
     2.921207418161713        0.4019375554943462E-01
     2.928755757743526        0.3958577389271675E-01
     2.936304097325339        0.3898405016843385E-01
     2.943852436907152        0.3838850117191663E-01
     2.951400776488966        0.3779904464620861E-01
     2.958949116070779        0.3721559926991595E-01
     2.966497455652592        0.3663808464519623E-01
     2.974045795234405        0.3606642128588538E-01
     2.981594134816218        0.3550053060575704E-01
     2.989142474398032        0.3494033490691890E-01
     2.996690813979845        0.3438575736834034E-01
     3.004239153561658        0.3383672203451075E-01
     3.011787493143471        0.3329315380422865E-01
     3.019335832725285        0.3275497841951881E-01
     3.026884172307098        0.3222212245467585E-01
     3.034432511888911        0.3169451330543415E-01
     3.041980851470724        0.3117207917826133E-01
     3.049529191052538        0.3065474907977494E-01
     3.057077530634351        0.3014245280628045E-01
     3.064625870216164        0.2963512093342894E-01
     3.072174209797977        0.2913268480599455E-01
     3.079722549379790        0.2863507652776806E-01
     3.087270888961604        0.2814222895156687E-01
     3.094819228543417        0.2765407566936090E-01
     3.102367568125230        0.2717055100250954E-01
     3.109915907707043        0.2669158999211289E-01
     3.117464247288857        0.2621712838947265E-01
     3.125012586870670        0.2574710264666251E-01
     3.132560926452483        0.2528144990720724E-01
     3.140109266034296        0.2482010799686819E-01
     3.147657605616109        0.2436301541453472E-01
     3.155205945197923        0.2391011132322008E-01
     3.162754284779736        0.2346133554115994E-01
     3.170302624361549        0.2301662853301421E-01
     3.177850963943362        0.2257593140116734E-01
     3.185399303525175        0.2213918587713066E-01
     3.192947643106988        0.2170633431304055E-01
     3.200495982688802        0.2127731967325591E-01
     3.208044322270615        0.2085208552604985E-01
     3.215592661852428        0.2043057603539705E-01
     3.223141001434241        0.2001273595285447E-01
     3.230689341016054        0.1959851060953392E-01
     3.238237680597868        0.1918784590816741E-01
     3.245786020179681        0.1878068831526043E-01
     3.253334359761494        0.1837698485333620E-01
     3.260882699343307        0.1797668309326710E-01
     3.268431038925121        0.1757973114669262E-01
     3.275979378506934        0.1718607765852342E-01
     3.283527718088747        0.1679567179952962E-01
     3.291076057670560        0.1640846325901349E-01
     3.298624397252373        0.1602440223756346E-01
     3.306172736834187        0.1564343943989038E-01
     3.313721076416000        0.1526552606774434E-01
     3.321269415997813        0.1489061381290994E-01
     3.328817755579626        0.1451865485028113E-01
     3.336366095161440        0.1414960183101193E-01
     3.343914434743253        0.1378340787574536E-01
     3.351462774325066        0.1342002656791557E-01
     3.359011113906879        0.1305941194712633E-01
     3.366559453488692        0.1270151850260169E-01
     3.374107793070506        0.1234630116670956E-01
     3.381656132652319        0.1199371530855645E-01
     3.389204472234132        0.1164371672765303E-01
     3.396752811815945        0.1129626164764956E-01
     3.404301151397759        0.1095130671013896E-01
     3.411849490979572        0.1060880896852963E-01
     3.419397830561385        0.1026872588343956E-01
     3.426946170143198        0.9931015399974102E-02
     3.434494509725011        0.9595636956585375E-02
     3.442042849306825        0.9262555948456423E-02
     3.449591188888638        0.8931753515577741E-02
     3.457139528470451        0.8603239796298304E-02
     3.464687868052264        0.8277066582062080E-02
     3.472236207634077        0.7953336183481019E-02
     3.479784547215890        0.7632205306280893E-02
     3.487332886797704        0.7313884263289527E-02
     3.494881226379517        0.6998632577738344E-02
     3.502429565961330        0.6686752185787712E-02
     3.509977905543143        0.6378579306499761E-02
     3.517526245124956        0.6074475807494489E-02
     3.525074584706770        0.5774820653378217E-02
     3.532622924288583        0.5480001821504349E-02
     3.540171263870396        0.5190408914788216E-02
     3.547719603452209        0.4906426589937580E-02
     3.555267943034023        0.4628428843092086E-02
     3.562816282615836        0.4356774144807190E-02
     3.570364622197649        0.4091801385160397E-02
     3.577912961779462        0.3833826571766735E-02
     3.585461301361275        0.3583140214374540E-02
     3.593009640943089        0.3340005326442147E-02
     3.600557980524902        0.3104655974506403E-02
     3.608106320106715        0.2877296308785200E-02
     3.615654659688528        0.2658100012286976E-02
     3.623202999270342        0.2447210110057721E-02
     3.630751338852155        0.2244739084599279E-02
     3.638299678433968        0.2050769247608900E-02
     3.645848018015781        0.1865353321734376E-02
     3.653396357597595        0.1688515188748158E-02
     3.660944697179408        0.1520250762063930E-02
     3.668493036761221        0.1360528941359327E-02
     3.676041376343034        0.1209292604385061E-02
     3.683589715924847        0.1066459584403188E-02
     3.691138055506661        0.9319235684572046E-03
     3.698686395088474        0.8055548268428597E-03
     3.706234734670287        0.6872006377172807E-03
     3.713783074252100        0.5766851816864617E-03
     3.721331413833914        0.4738085017761746E-03
     3.728879753415726        0.3783437372144846E-03
     3.736428092997540        0.2900309241386698E-03
     3.743976432579353        0.2085632023714024E-03
     3.751524772161166        0.1335534023076943E-03
     3.759073111742979        0.6443557125928604E-04
     3.766621451324792         0.000000000000000    
  0  2  2  0  0.000000   #orbital l, n, z, is_polarized, population
 500    0.4738681217658651E-02     2.364601927611667     # npts, delta, cutoff
     0.000000000000000         1.648428199700845    
    0.4738681217658651E-02     1.648421529130185    
    0.9477362435317303E-02     1.648466445331222    
    0.1421604365297595E-01     1.648541273811206    
    0.1895472487063461E-01     1.648645909546835    
    0.2369340608829325E-01     1.648780219319847    
    0.2843208730595191E-01     1.648944034148220    
    0.3317076852361056E-01     1.649137148282707    
    0.3790944974126921E-01     1.649359319041128    
    0.4264813095892786E-01     1.649610266844035    
    0.4738681217658651E-01     1.649889675324500    
    0.5212549339424517E-01     1.650197191477365    
    0.5686417461190382E-01     1.650532425836421    
    0.6160285582956247E-01     1.650894952675131    
    0.6634153704722112E-01     1.651284310229040    
    0.7108021826487977E-01     1.651700000939016    
    0.7581889948253842E-01     1.652141491714966    
    0.8055758070019707E-01     1.652608214219841    
    0.8529626191785572E-01     1.653099565173833    
    0.9003494313551437E-01     1.653614906678786    
    0.9477362435317302E-01     1.654153566562792    
    0.9951230557083168E-01     1.654714838745028    