<preamble>

<basis_specs>
===============================================================================
Os                   Z=  76    Mass=  190.23        Charge= 0.17977+309
Lmxo=2 Lmxkb= 3    BasisType=split      Semic=T
L=0  Nsemic=1  Cnfigmx=6
          i=1  nzeta=1  polorb=0  (5s)  (semicore shell)
            splnorm:   0.15000    
               vcte:    40.000    
               rinn:    2.4616    
               qcoe:    0.0000    
               qyuk:    0.0000    
               qwid:   0.10000E-01
                rcs:    2.7324    
            lambdas:    1.0000    
          i=2  nzeta=2  polorb=0  (6s)  (to be polarized non-perturbatively)
            splnorm:   0.15000    
               vcte:    40.000    
               rinn:    6.1104    
               qcoe:    0.0000    
               qyuk:    0.0000    
               qwid:   0.10000E-01
                rcs:    6.7894      4.8441    
            lambdas:    1.0000      1.0000    
L=1  Nsemic=1  Cnfigmx=6
          i=1  nzeta=1  polorb=0  (5p)  (semicore shell)
            splnorm:   0.15000    
               vcte:    40.000    
               rinn:    2.9194    
               qcoe:    0.0000    
               qyuk:    0.0000    
               qwid:   0.10000E-01
                rcs:    3.2406    
            lambdas:    1.0000    
          i=2  nzeta=1  polorb=0  (6p)  (non-perturbative polarization shell)
            splnorm:   0.15000    
               vcte:    40.000    
               rinn:    6.1166    
               qcoe:    0.0000    
               qyuk:    0.0000    
               qwid:   0.10000E-01
                rcs:    6.7894    
            lambdas:    1.0000    
L=2  Nsemic=0  Cnfigmx=5
          i=1  nzeta=2  polorb=0  (5d)
            splnorm:   0.15000    
               vcte:    40.000    
               rinn:    4.8824    
               qcoe:    0.0000    
               qyuk:    0.0000    
               qwid:   0.10000E-01
                rcs:    5.4248      3.5717    
            lambdas:    1.0000      1.0000    
-------------------------------------------------------------------------------
L=0  Nkbl=2  erefs: 0.17977+309 0.17977+309
L=1  Nkbl=2  erefs: 0.17977+309 0.17977+309
L=2  Nkbl=1  erefs: 0.17977+309
L=3  Nkbl=1  erefs: 0.17977+309
===============================================================================
</basis_specs>

<pseudopotential_header>
 Os pw nrl pcec
 ONCVPSP-3.2018-03-09Hamann's oncvpsp                        
 5s 2.00  r= 1.51/5p 6.00  r= 1.55/5d 6.00  r= 1.55/5f 0.00  r= 2.27/   5s:5p:5d:6s:
</pseudopotential_header>
</preamble>
Os                            # Symbol
Os                            # Label
   76                         # Atomic number
     16.0000000000                             # Valence charge
     190.230000000        # Mass 
     270.526129032        # Self energy 
   2   7                      # Lmax for basis, no. of nl orbitals 
   3   8                      # Lmax for projectors, no. of nl KB projectors
# PAOs:__________________________
  0  5  1  0  2.000000   #orbital l, n, z, is_polarized, population
 500    0.5475731523589864E-02     2.732390030271342     # npts, delta, cutoff
     0.000000000000000        0.6606341486013024    
    0.5475731523589864E-02    0.6607337948129104    
    0.1095146304717973E-01    0.6610853727009699    
    0.1642719457076959E-01    0.6616710956303689    
    0.2190292609435946E-01    0.6624905632758492    
    0.2737865761794932E-01    0.6635432252411010    
    0.3285438914153919E-01    0.6648283761021027    
    0.3833012066512905E-01    0.6663451551624285    
    0.4380585218871891E-01    0.6680925468981604    
    0.4928158371230878E-01    0.6700693816450101    
    0.5475731523589864E-01    0.6722743364376976    
    0.6023304675948851E-01    0.6747059359765138    
    0.6570877828307838E-01    0.6773625537121900    
    0.7118450980666824E-01    0.6802424130450826    
    0.7666024133025810E-01    0.6833435886363912    
    0.8213597285384797E-01    0.6866640078297551    
    0.8761170437743783E-01    0.6902014521817753    
    0.9308743590102769E-01    0.6939535591001211    
    0.9856316742461756E-01    0.6979178235878073    
    0.1040388989482074        0.7020916000922256    
    0.1095146304717973        0.7064721044574271    
    0.1149903619953871        0.7110564159780943    
    0.1204660935189770        0.7158414795535626    
    0.1259418250425669        0.7208241079401643    
    0.1314175565661568        0.7260009841001066    
    0.1368932880897466        0.7313686636450054    
    0.1423690196133365        0.7369235773721253    
    0.1478447511369263        0.7426620338912941    
    0.1533204826605162        0.7485802223403948    
    0.1587962141841061        0.7546742151872546    
    0.1642719457076959        0.7609399711156805    
    0.1697476772312858        0.7673733379933201    
    0.1752234087548757        0.7739700559189643    
    0.1806991402784655        0.7807257603468181    
    0.1861748718020554        0.7876359852852289    
    0.1916506033256453        0.7946961665672708    
    0.1971263348492351        0.8019016451905369    
    0.2026020663728250        0.8092476707234242    
    0.2080777978964148        0.8167294047751285    
    0.2135535294200047        0.8243419245265360    
    0.2190292609435946        0.8320802263191082    
    0.2245049924671844        0.8399392292988226    
    0.2299807239907743        0.8479137791121929    
    0.2354564555143642        0.8559986516513131    
    0.2409321870379540        0.8641885568448534    
    0.2464079185615439        0.8724781424918723    
    0.2518836500851337        0.8808619981352879    
    0.2573593816087236        0.8893346589717798    
    0.2628351131323135        0.8978906097949098    
    0.2683108446559034        0.9065242889681583    
    0.2737865761794932        0.9152300924245865    
    0.2792623077030831        0.9240023776897913    
    0.2847380392266730        0.9328354679247868    
    0.2902137707502628        0.9417236559854496    
    0.2956895022738527        0.9506612084951234    
    0.3011652337974425        0.9596423699269665    
    0.3066409653210324        0.9686613666926394    
    0.3121166968446223        0.9777124112338790    
    0.3175924283682121        0.9867897061135413    
    0.3230681598918020        0.9958874481026665    
    0.3285438914153919         1.004999832260128    
    0.3340196229389817         1.014121056001442    
    0.3394953544625716         1.023245323153309    
    0.3449710859861614         1.032366847990468    
    0.3504468175097513         1.041479859251489    
    0.3559225490333412         1.050578604130105    
    0.3613982805569311         1.059657352238733    
    0.3668740120805209         1.068710399540860    
    0.3723497436041108         1.077732072248992    
    0.3778254751277006         1.086716730684894    
    0.3833012066512905         1.095658773098889    
    0.3887769381748803         1.104552639445036    
    0.3942526696984702         1.113392815109014    
    0.3997284012220601         1.122173834585651    
    0.4052041327456500         1.130890285102991    
    0.4106798642692398         1.139536810189952    
    0.4161555957928297         1.148108113184612    
    0.4216313273164196         1.156598960680236    
    0.4271070588400094         1.165004185906229    
    0.4325827903635993         1.173318692041291    
    0.4380585218871891         1.181537455456047    
    0.4435342534107790         1.189655528882583    
    0.4490099849343689         1.197668044508339    
    0.4544857164579588         1.205570216991907    
    0.4599614479815486         1.213357346398370    
    0.4654371795051385         1.221024821051875    
    0.4709129110287283         1.228568120303282    
    0.4763886425523182         1.235982817210728    
    0.4818643740759080         1.243264581131122    
    0.4873401055994979         1.250409180220645    
    0.4928158371230878         1.257412483842416    
    0.4982915686466777         1.264270464879603    
    0.5037673001702675         1.270979201952361    
    0.5092430316938574         1.277534881537052    
    0.5147187632174473         1.283933799986356    
    0.5201944947410371         1.290172365448935    
    0.5256702262646270         1.296247099687457    
    0.5311459577882168         1.302154639793879    
    0.5366216893118068         1.307891739801015    
    0.5420974208353966         1.313455272189488    
    0.5475731523589864         1.318842229289319    
    0.5530488838825763         1.324049724575515    
    0.5585246154061662         1.329074993857081    
    0.5640003469297560         1.333915396359081    
    0.5694760784533459         1.338568415697378    
    0.5749518099769357         1.343031660745930    
    0.5804275415005257         1.347302866396479    
    0.5859032730241155         1.351379894210746    
    0.5913790045477053         1.355260732965199    
    0.5968547360712952         1.358943499088726    
    0.6023304675948851         1.362426436993513    
    0.6078061991184749         1.365707919299667    
    0.6132819306420648         1.368786446954136    
    0.6187576621656546         1.371660649244651    
    0.6242333936892446         1.374329283709478    
    0.6297091252128344         1.376791235943910    
    0.6351848567364242         1.379045519304509    
    0.6406605882600142         1.381091274512225    
    0.6461363197836040         1.382927769155621    
    0.6516120513071939         1.384554397095500    
    0.6570877828307837         1.385970677772386    
    0.6625635143543736         1.387176255418347    
    0.6680392458779635         1.388170898174781    
    0.6735149774015533         1.388954497117839    
    0.6789907089251431         1.389527065193293    
    0.6844664404487331         1.389888736062689    
    0.6899421719723229         1.390039762862734    
    0.6954179034959128         1.389980516879963    
    0.7008936350195026         1.389711486142740    
    0.7063693665430925         1.389233273932810    
    0.7118450980666824         1.388546597218602    
    0.7173208295902722         1.387652285012600    
    0.7227965611138621         1.386551276655154    
    0.7282722926374520         1.385244620027130    
    0.7337480241610418         1.383733469693886    
    0.7392237556846317         1.382019084983098    
    0.7446994872082215         1.380102827999016    
    0.7501752187318114         1.377986161575743    
    0.7556509502554013         1.375670647172216    
    0.7611266817789911         1.373157942711552    
    0.7666024133025811         1.370449800367497    
    0.7720781448261709         1.367548064300737    
    0.7775538763497607         1.364454668347807    
    0.7830296078733506         1.361171633665417    
    0.7885053393969405         1.357701066333005    
    0.7939810709205304         1.354045154916312    
    0.7994568024441202         1.350206167994833    
    0.8049325339677100         1.346186451655961    
    0.8104082654913000         1.341988426958663    
    0.8158839970148898         1.337614587371968    
    0.8213597285384796         1.333067515800467    
    0.8268354600620695         1.328349840332185    
    0.8323111915856594         1.323464238333940    
    0.8377869231092493         1.318413466806079    
    0.8432626546328391         1.313200342026576    
    0.8487383861564289         1.307827736873892    
    0.8542141176800189         1.302298578147764    
    0.8596898492036087         1.296615843884436    
    0.8651655807271985         1.290782560668991    
    0.8706413122507884         1.284801800947392    
    0.8761170437743783         1.278676680340791    
    0.8815927752979682         1.272410354964627    
    0.8870685068215580         1.266006018754993    
    0.8925442383451478         1.259466900804703    
    0.8980199698687378         1.252796262711435    
    0.9034957013923276         1.245997395940272    
    0.9089714329159175         1.239073619202916    
    0.9144471644395074         1.232028275855771    
    0.9199228959630972         1.224864731319077    
    0.9253986274866871         1.217586370519150    
    0.9308743590102769         1.210196595355781    
    0.9363500905338668         1.202698822196738    
    0.9418258220574567         1.195096479401279    
    0.9473015535810465         1.187393004874499    
    0.9527772851046364         1.179591843654261    
    0.9582530166282263         1.171696445532413    
    0.9637287481518161         1.163710262711894    
    0.9692044796754060         1.155636747501277    
    0.9746802111989958         1.147479350048228    
    0.9801559427225858         1.139241516113264    
    0.9856316742461756         1.130926684885148    
    0.9911074057697654         1.122538286839153    
    0.9965831372933553         1.114079741639388    
     1.002058868816945         1.105554456086274    
     1.007534600340535         1.096965822110201    
     1.013010331864125         1.088317214812303    
     1.018486063387715         1.079611990553248    
     1.023961794911305         1.070853485090836    
     1.029437526434895         1.062045011767118    
     1.034913257958484         1.053189859745728    
     1.040388989482074         1.044291292299975    
     1.045864721005664         1.035352545152233    
     1.051340452529254         1.026376824865057    
     1.056816184052844         1.017367307284409    
     1.062291915576434         1.008327136035291    
     1.067767647100023        0.9992594210700283    
     1.073243378623614        0.9901672372693712    
     1.078719110147203        0.9810536230965227    
     1.084194841670793        0.9719215793041470    
     1.089670573194383        0.9627740676943258    
     1.095146304717973        0.9536140099313967    
     1.100622036241563        0.9444442864075415    
     1.106097767765153        0.9352677351609209    
     1.111573499288742        0.9260871508461226    
     1.117049230812332        0.9169052837566136    
     1.122524962335922        0.9077248388988466    
     1.128000693859512        0.8985484751176372    
     1.133476425383102        0.8893788042723336    
     1.138952156906692        0.8802183904633181    
     1.144427888430282        0.8710697493082814    
     1.149903619953871        0.8619353472677015    
     1.155379351477461        0.8528176010189102    
     1.160855083001051        0.8437188768780918    
     1.166330814524641        0.8346414902695202    
     1.171806546048231        0.8255877052413101    
     1.177282277571821        0.8165597340269322    
     1.182758009095411        0.8075597366517124    
     1.188233740619001        0.7985898205834850    
     1.193709472142590        0.7896520404265814    
     1.199185203666180        0.7807483976582875    
     1.204660935189770        0.7718808404068869    
     1.210136666713360        0.7630512632703872    
     1.215612398236950        0.7542615071750211    
     1.221088129760540        0.7455133592725766    
     1.226563861284130        0.7368085528756204    
     1.232039592807719        0.7281487674296425    
     1.237515324331309        0.7195356285211723    
     1.242991055854899        0.7109707079208698    
     1.248466787378489        0.7024555236606261    
     1.253942518902079        0.6939915401436753    
     1.259418250425669        0.6855801682867300    
     1.264893981949259        0.6772227656931550    
     1.270369713472848        0.6689206368561834    
     1.275845444996438        0.6606750333911796    
     1.281321176520028        0.6524871542959849    
     1.286796908043618        0.6443581462383363    
     1.292272639567208        0.6362891038694084    
     1.297748371090798        0.6282810701624972    
     1.303224102614388        0.6203350367758927    
     1.308699834137978        0.6124519444389906    
     1.314175565661567        0.6046326833607080    
     1.319651297185157        0.5968780936592699    
     1.325127028708747        0.5891889658124734    
     1.330602760232337        0.5815660411274989    
     1.336078491755927        0.5740100122294340    
     1.341554223279517        0.5665215235675867    
     1.347029954803107        0.5591011719387938    
     1.352505686326696        0.5517495070268459    
     1.357981417850286        0.5444670319572545    
     1.363457149373876        0.5372542038665259    
     1.368932880897466        0.5301114344852169    
     1.374408612421056        0.5230390907339562    
     1.379884343944646        0.5160374953317616    
     1.385360075468236        0.5091069274158820    
     1.390835806991826        0.5022476231725139    
     1.396311538515415        0.4954597764776892    
     1.401787270039005        0.4887435395477200    
     1.407263001562595        0.4820990235985310    
     1.412738733086185        0.4755262995133193    
     1.418214464609775        0.4690253985179234    
     1.423690196133365        0.4625963128633617    
     1.429165927656955        0.4562389965149969    
     1.434641659180544        0.4499533658478065    
     1.440117390704134        0.4437393003472830    
     1.445593122227724        0.4375966433154616    
     1.451068853751314        0.4315252025816710    
     1.456544585274904        0.4255247512175369    
     1.462020316798494        0.4195950282542735    
     1.467496048322084        0.4137357393197292    
     1.472971779845673        0.4079465573801613    
     1.478447511369263        0.4022271237356776    
     1.483923242892853        0.3965770490043874    
     1.489398974416443        0.3909959139106200    
     1.494874705940033        0.3854832686831907    
     1.500350437463623        0.3800386330481648    
     1.505826168987213        0.3746614968865797    
     1.511301900510803        0.3693513236547297    
     1.516777632034392        0.3641075548206991    
     1.522253363557982        0.3589296145684702    
     1.527729095081572        0.3538169147975757    
     1.533204826605162        0.3487688598558440    
     1.538680558128752        0.3437848508102699    
     1.544156289652342        0.3388642881216414    
     1.549632021175932        0.3340065715186253    
     1.555107752699521        0.3292110995255849    
     1.560583484223111        0.3244772684654553    
     1.566059215746701        0.3198044729596748    
     1.571534947270291        0.3151921064618554    
     1.577010678793881        0.3106395613769997    
     1.582486410317471        0.3061462300358512    
     1.587962141841061        0.3017115048560650    
     1.593437873364651        0.2973347784885269    
     1.598913604888240        0.2930154440724856    
     1.604389336411830        0.2887528954839765    
     1.609865067935420        0.2845465275721700    
     1.615340799459010        0.2803957363845603    
     1.620816530982600        0.2762999193818108    
     1.626292262506190        0.2722584756426105    
     1.631767994029780        0.2682708060588735    
     1.637243725553369        0.2643363135216115    
     1.642719457076959        0.2604544030977979    
     1.648195188600549        0.2566244821985357    
     1.653670920124139        0.2528459607388304    
     1.659146651647729        0.2491182512892442    
     1.664622383171319        0.2454407692197387    
     1.670098114694909        0.2418129328359578    
     1.675573846218499        0.2382341635082321    
     1.681049577742088        0.2347038857935472    
     1.686525309265678        0.2312215275507365    
     1.692001040789268        0.2277865200491417    
     1.697476772312858        0.2243982980709612    
     1.702952503836448        0.2210563000075343    
     1.708428235360038        0.2177599679497584    
     1.713903966883628        0.2145087477728725    
     1.719379698407217        0.2113020892158031    
     1.724855429930807        0.2081394459552731    
     1.730331161454397        0.2050202756748750    
     1.735806892977987        0.2019440401292807    
     1.741282624501577        0.1989102052037896    
     1.746758356025167        0.1959182409693769    
     1.752234087548757        0.1929676217334162    
     1.757709819072346        0.1900578260862482    
     1.763185550595936        0.1871883369437388    
     1.768661282119526        0.1843586415860040    
     1.774137013643116        0.1815682316924306    
     1.779612745166706        0.1788166033731511    
     1.785088476690296        0.1761032571971071    
     1.790564208213886        0.1734276982168382    
     1.796039939737476        0.1707894359901266    
     1.801515671261065        0.1681879845986287    
     1.806991402784655        0.1656228626636081    
     1.812467134308245        0.1630935933588986    
     1.817942865831835        0.1605997044212045    
     1.823418597355425        0.1581407281578547    
     1.828894328879015        0.1557162014521126    
     1.834370060402605        0.1533256657661504    
     1.839845791926194        0.1509686671417846    
     1.845321523449784        0.1486447561990736    
     1.850797254973374        0.1463534881328656    
     1.856272986496964        0.1440944227073924    
     1.861748718020554        0.1418671242489943    
     1.867224449544144        0.1396711616370604    
     1.872700181067734        0.1375061082932662    
     1.878175912591324        0.1353715421691881    
     1.883651644114913        0.1332670457323690    
     1.889127375638503        0.1311922059509120    
     1.894603107162093        0.1291466142766664    
     1.900078838685683        0.1271298666270832    
     1.905554570209273        0.1251415633657986    
     1.911030301732863        0.1231813092820137    
     1.916506033256453        0.1212487135687302    
     1.921981764780042        0.1193433897999009    
     1.927457496303632        0.1174649559065530    
     1.932933227827222        0.1156130341519396    
     1.938408959350812        0.1137872511057717    
     1.943884690874402        0.1119872376175824    
     1.949360422397992        0.1102126287892713    
     1.954836153921581        0.1084630639468799    
     1.960311885445172        0.1067381866116410    
     1.965787616968761        0.1050376444703449    
     1.971263348492351        0.1033610893450701    
     1.976739080015941        0.1017081771623154    
     1.982214811539531        0.1000785679215711    
     1.987690543063121        0.9847192566337190E-01
     1.993166274586711        0.9688791843686777E-01
     1.998642006110301        0.9532621826693971E-01
     2.004117737633890        0.9378650112090629E-01
     2.009593469157480        0.9226844687484449E-01
     2.015069200681070        0.9077173927955758E-01
     2.020544932204660        0.8929606592622416E-01
     2.026020663728250        0.8784111821175188E-01
     2.031496395251840        0.8640659130386585E-01
     2.036972126775430        0.8499218410595866E-01
     2.042447858299020        0.8359759922172652E-01
     2.047923589822609        0.8222254291961593E-01
     2.053399321346199        0.8086672509710466E-01
     2.058875052869789        0.7952985924484007E-01
     2.064350784393379        0.7821166241065358E-01
     2.069826515916969        0.7691185516347630E-01
     2.075302247440558        0.7563016155717135E-01
     2.080777978964148        0.7436630909430415E-01
     2.086253710487738        0.7312002868986725E-01
     2.091729442011328        0.7189105463497955E-01
     2.097205173534918        0.7067912456057304E-01
     2.102680905058508        0.6948397940108397E-01
     2.108156636582098        0.6830536335816721E-01
     2.113632368105688        0.6714302386444028E-01
     2.119108099629277        0.6599671154727911E-01
     2.124583831152867        0.6486618019267418E-01
     2.130059562676457        0.6375118670915841E-01
     2.135535294200047        0.6265149109182275E-01
     2.141011025723637        0.6156685638642823E-01
     2.146486757247227        0.6049704865362292E-01
     2.151962488770817        0.5944183693328060E-01
     2.157438220294407        0.5840099320896359E-01
     2.162913951817997        0.5737429237252287E-01
     2.168389683341586        0.5636151218884441E-01
     2.173865414865176        0.5536243326074728E-01
     2.179341146388766        0.5437683899404467E-01
     2.184816877912356        0.5340451556277140E-01
     2.190292609435946        0.5244525187458902E-01
     2.195768340959535        0.5149883953637120E-01
     2.201244072483125        0.5056507281997781E-01
     2.206719804006716        0.4964374862822287E-01
     2.212195535530305        0.4873466646104226E-01
     2.217671267053895        0.4783762838186393E-01
     2.223146998577485        0.4695243898418986E-01
     2.228622730101075        0.4607890535838859E-01
     2.234098461624665        0.4521683705870687E-01
     2.239574193148254        0.4436604607050346E-01
     2.245049924671844        0.4352634677770420E-01
     2.250525656195434        0.4269755593048949E-01
     2.256001387719024        0.4187949261320926E-01
     2.261477119242614        0.4107197821253351E-01
     2.266952850766204        0.4027483638583825E-01
     2.272428582289794        0.3948789302982933E-01
     2.277904313813384        0.3871097624940788E-01
     2.283380045336973        0.3794391632677619E-01
     2.288855776860563        0.3718654569078822E-01
     2.294331508384153        0.3643869888654588E-01
     2.299807239907743        0.3570021254523885E-01
     2.305282971431333        0.3497092535423444E-01
     2.310758702954923        0.3425067802741372E-01
     2.316234434478512        0.3353931327575639E-01
     2.321710166002103        0.3283667577817526E-01
     2.327185897525692        0.3214261215259914E-01
     2.332661629049282        0.3145697092730666E-01
     2.338137360572872        0.3077960251250740E-01
     2.343613092096462        0.3011035917217460E-01
     2.349088823620052        0.2944909499612590E-01
     2.354564555143642        0.2879566587235256E-01
     2.360040286667231        0.2814992945959763E-01
     2.365516018190821        0.2751174516018078E-01
     2.370991749714411        0.2688097409307113E-01
     2.376467481238001        0.2625747906720456E-01
     2.381943212761591        0.2564112455504748E-01
     2.387418944285181        0.2503177666640410E-01
     2.392894675808771        0.2442930312246583E-01
     2.398370407332361        0.2383357323010361E-01
     2.403846138855950        0.2324445785639927E-01
     2.409321870379540        0.2266182940341704E-01
     2.414797601903130        0.2208556178321113E-01
     2.420273333426720        0.2151553039307013E-01
     2.425749064950310        0.2095161209099634E-01
     2.431224796473900        0.2039368517141573E-01
     2.436700527997490        0.1984162934112088E-01
     2.442176259521080        0.1929532569544152E-01
     2.447651991044669        0.1875465669464327E-01
     2.453127722568259        0.1821950614055044E-01
     2.458603454091849        0.1768975915339435E-01
     2.464079185615439        0.1716530214888008E-01
     2.469554917139029        0.1664602281547523E-01
     2.475030648662619        0.1613181009191452E-01
     2.480506380186208        0.1562255414652430E-01
     2.485982111709798        0.1511814644693873E-01
     2.491457843233388        0.1461848085826267E-01
     2.496933574756978        0.1412345856162295E-01
     2.502409306280568        0.1363299888192597E-01
     2.507885037804158        0.1314705400605628E-01
     2.513360769327748        0.1266562312735280E-01
     2.518836500851338        0.1218876249774703E-01
     2.524312232374927        0.1171659004849841E-01
     2.529787963898517        0.1124928491894777E-01
     2.535263695422107        0.1078708303533708E-01
     2.540739426945697        0.1033027005121489E-01
     2.546215158469287        0.9879172809199621E-02
     2.551690889992877        0.9434150221995874E-02
     2.557166621516467        0.8995584207508244E-02
     2.562642353040057        0.8563871092369779E-02
     2.568118084563646        0.8139413730080579E-02
     2.573593816087236        0.7722614459525043E-02
     2.579069547610826        0.7313868947521786E-02
     2.584545279134416        0.6913560905636799E-02
     2.590021010658006        0.6522057638634718E-02
     2.595496742181596        0.6139706363282433E-02
     2.600972473705185        0.5766831227106953E-02
     2.606448205228776        0.5403730953764864E-02
     2.611923936752365        0.5050677042592992E-02
     2.617399668275955        0.4707912453047663E-02
     2.622875399799545        0.4375650709029153E-02
     2.628351131323135        0.4054075362767831E-02
     2.633826862846725        0.3743339762511172E-02
     2.639302594370315        0.3443567072299818E-02
     2.644778325893904        0.3154850495324992E-02
     2.650254057417494        0.2877253654347977E-02
     2.655729788941084        0.2610811082956853E-02
     2.661205520464674        0.2355528779275662E-02
     2.666681251988264        0.2111384767906004E-02
     2.672156983511854        0.1878329604187571E-02
     2.677632715035444        0.1656286733393161E-02
     2.683108446559034        0.1445152578772338E-02
     2.688584178082623        0.1244796161632568E-02
     2.694059909606213        0.1055057922816165E-02
     2.699535641129803        0.8757471479966805E-03
     2.705011372653393        0.7066368277964570E-03
     2.710487104176983        0.5474534407527371E-03
     2.715962835700573        0.3978555681682690E-03
     2.721438567224163        0.2573838481504942E-03
     2.726914298747753        0.1253166429943235E-03
     2.732390030271342         0.000000000000000    
  0  6  1  0  2.000000   #orbital l, n, z, is_polarized, population
 500    0.1360594990324882E-01     6.789369001721162     # npts, delta, cutoff
     0.000000000000000        0.3819275985423528    
    0.1360594990324882E-01    0.3822624797773743    