<preamble>

<basis_specs>
===============================================================================
P                    Z=  15    Mass=  30.974        Charge= 0.17977+309
Lmxo=2 Lmxkb= 2    BasisType=split      Semic=F
L=0  Nsemic=0  Cnfigmx=3
          i=1  nzeta=2  polorb=0  (3s)
            splnorm:   0.15000    
               vcte:    40.000    
               rinn:    4.6438    
               qcoe:    0.0000    
               qyuk:    0.0000    
               qwid:   0.10000E-01
                rcs:    5.1598      3.5078    
            lambdas:    1.0000      1.0000    
L=1  Nsemic=0  Cnfigmx=3
          i=1  nzeta=2  polorb=1  (3p)  (to be polarized perturbatively)
            splnorm:   0.15000    
               vcte:    40.000    
               rinn:    5.8587    
               qcoe:    0.0000    
               qyuk:    0.0000    
               qwid:   0.10000E-01
                rcs:    6.5097      4.4934    
            lambdas:    1.0000      1.0000    
L=2  Nsemic=0  Cnfigmx=3
          i=1  nzeta=0  polorb=0  (3d)  (perturbative polarization orbital) (from 3p)
-------------------------------------------------------------------------------
L=0  Nkbl=1  erefs: 0.17977+309
L=1  Nkbl=1  erefs: 0.17977+309
L=2  Nkbl=1  erefs: 0.17977+309
===============================================================================
</basis_specs>

<pseudopotential_header>
 P  pw nrl pcec
 ONCVPSP-3.2018-03-09Hamann's oncvpsp                        
 3s 2.00  r= 1.46/3p 3.00  r= 1.55/3d 0.00  r= 1.71/                    3s:3p:
</pseudopotential_header>
</preamble>
P                             # Symbol
P                             # Label
   15                         # Atomic number
     5.00000000000                             # Valence charge
     30.9740000000        # Mass 
     28.1890989426        # Self energy 
   2   5                      # Lmax for basis, no. of nl orbitals 
   2   6                      # Lmax for projectors, no. of nl KB projectors
# PAOs:__________________________
  0  3  1  0  2.000000   #orbital l, n, z, is_polarized, population
 500    0.1034023716140914E-01     5.159778343543162     # npts, delta, cutoff
     0.000000000000000        0.8907263024138502E-01
    0.1034023716140914E-01    0.8917768260541126E-01
    0.2068047432281829E-01    0.8949502466717420E-01
    0.3102071148422743E-01    0.9002379891343534E-01
    0.4136094864563657E-01    0.9076380692004860E-01
    0.5170118580704572E-01    0.9171476369617783E-01
    0.6204142296845486E-01    0.9287629032890450E-01
    0.7238166012986401E-01    0.9424790491173642E-01
    0.8272189729127315E-01    0.9582901184752399E-01
    0.9306213445268229E-01    0.9761888972925141E-01
    0.1034023716140914        0.9961667803944160E-01
    0.1137426087755006        0.1018213629352108    
    0.1240828459369097        0.1042317624063159    
    0.1344230830983189        0.1068465111083329    
    0.1447633202597280        0.1096640451822990    
    0.1551035574211372        0.1126825873756289    
    0.1654437945825463        0.1159001327768325    
    0.1757840317439554        0.1193144354685697    
    0.1861242689053646        0.1229229963900398    
    0.1964645060667737        0.1267230526808497    
    0.2068047432281829        0.1307115687547293    
    0.2171449803895920        0.1348852293231593    
    0.2274852175510012        0.1392404345567084    
    0.2378254547124103        0.1437732975362166    
    0.2481656918738194        0.1484796441075812    
    0.2585059290352286        0.1533550152134919    
    0.2688461661966377        0.1583946717337819    
    0.2791864033580469        0.1635936018238607    
    0.2895266405194560        0.1689465306987451    
    0.2998668776808652        0.1744479327692843    
    0.3102071148422743        0.1800920459980020    
    0.3205473520036835        0.1858728883052803    
    0.3308875891650926        0.1917842758230470    
    0.3412278263265017        0.1978198427632752    
    0.3515680634879109        0.2039730626430346    
    0.3619083006493200        0.2102372705869365    
    0.3722485378107291        0.2166056864120276    
    0.3825887749721383        0.2230714381896822    
    0.3929290121335475        0.2296275859740683    
    0.4032692492949566        0.2362671453873423    
    0.4136094864563657        0.2429831107577971    
    0.4239497236177749        0.2497684775186733    
    0.4342899607791840        0.2566162635919285    
    0.4446301979405932        0.2635195295026623    
    0.4549704351020023        0.2704713969956504    
    0.4653106722634114        0.2774650659550938    
    0.4756509094248206        0.2844938294616132    
    0.4859911465862297        0.2915510868561187    
    0.4963313837476389        0.2986303547177846    
    0.5066716209090480        0.3057252757022095    
    0.5170118580704571        0.3128296252252588    
    0.5273520952318663        0.3199373160173056    
    0.5376923323932754        0.3270424006108603    
    0.5480325695546846        0.3341390718612574    
    0.5583728067160938        0.3412216616343858    
    0.5687130438775029        0.3482846378268785    
    0.5790532810389121        0.3553225999120567    
    0.5893935182003212        0.3623302732288234    
    0.5997337553617303        0.3693025022501387    
    0.6100739925231394        0.3762342430824145    
    0.6204142296845486        0.3831205554568151    
    0.6307544668459577        0.3899565938190456    
    0.6410947040073669        0.3967375979394921    
    0.6514349411687760        0.4034588878632165    
    0.6617751783301852        0.4101158555207673    
    0.6721154154915944        0.4167039579830458    
    0.6824556526530035        0.4232187117787805    
    0.6927958898144126        0.4296556883738493    
    0.7031361269758217        0.4360105109726825    
    0.7134763641372309        0.4422788527712899    
    0.7238166012986400        0.4484564367582848    
    0.7341568384600492        0.4545390371254808    
    0.7444970756214583        0.4605224823136483    
    0.7548373127828675        0.4664026596827757    
    0.7651775499442766        0.4721755217602017    
    0.7755177871056858        0.4778370939850600    
    0.7858580242670949        0.4833834838342381    
    0.7961982614285040        0.4888108911841813    
    0.8065384985899132        0.4941156197348600    
    0.8168787357513223        0.4992940892977212    
    0.8272189729127315        0.5043428487288115    
    0.8375592100741406        0.5092585892719685    
    0.8478994472355498        0.5140381580652550    
    0.8582396843969589        0.5186785715569342    
    0.8685799215583681        0.5231770285753468    
    0.8789201587197771        0.5275309228000582    
    0.8892603958811863        0.5317378543896257    
    0.8996006330425955        0.5357956405339576    
    0.9099408702040046        0.5397023247164926    
    0.9202811073654138        0.5434561844927179    
    0.9306213445268229        0.5470557376166955    
    0.9409615816882321        0.5504997463756345    
    0.9513018188496412        0.5537872200236810    
    0.9616420560110504        0.5569174152393696    
    0.9719822931724594        0.5598898345659498    
    0.9823225303338686        0.5627042228294731    
    0.9926627674952777        0.5653605615653553    
     1.003003004656687        0.5678590615194674    
     1.013343241818096        0.5702001533240471    
     1.023683478979505        0.5723844764811397    
     1.034023716140914        0.5744128668163122    
     1.044363953302323        0.5762863425925192    
     1.054704190463733        0.5780060894976400    
     1.065044427625142        0.5795734447390073    
     1.075384664786551        0.5809898804938270    
     1.085724901947960        0.5822569869754077    
     1.096065139109369        0.5833764553814784    
     1.106405376270778        0.5843500609924069    
     1.116745613432188        0.5851796466837982    
     1.127085850593597        0.5858671071099307    
     1.137426087755006        0.5864143738017844    
     1.147766324916415        0.5868234014064507    
     1.158106562077824        0.5870961552736349    
     1.168446799239233        0.5872346005703299    
     1.178787036400642        0.5872406930768880    
     1.189127273562052        0.5871163717872460    
     1.199467510723461        0.5868635534035079    
     1.209807747884870        0.5864841287810578    
     1.220147985046279        0.5859799613454716    
     1.230488222207688        0.5853528874674182    
     1.240828459369097        0.5846047187470425    
     1.251168696530506        0.5837372461257287    
     1.261508933691915        0.5827522457111340    
     1.271849170853325        0.5816514861716666    
     1.282189408014734        0.5804367375295938    
     1.292529645176143        0.5791097811581793    
     1.302869882337552        0.5776724207681282    
     1.313210119498961        0.5761264941524616    
     1.323550356660370        0.5744738854470093    
     1.333890593821780        0.5727165376562291    
     1.344230830983189        0.5708564651910785    
     1.354571068144598        0.5688957661672497    
     1.364911305306007        0.5668366342181460    
     1.375251542467416        0.5646813889935389    
     1.385591779628825        0.5624324557148126    
     1.395932016790234        0.5600923488233792    
     1.406272253951643        0.5576637445503525    
     1.416612491113053        0.5551494588547643    
     1.426952728274462        0.5525524523682741    
     1.437292965435871        0.5498758306525784    
     1.447633202597280        0.5471228471253183    
     1.457973439758689        0.5442969162767388    
     1.468313676920098        0.5414015822593370    
     1.478653914081508        0.5384404299702755    
     1.488994151242917        0.5354169888506538    
     1.499334388404326        0.5323346685780863    
     1.509674625565735        0.5291967586123407    
     1.520014862727144        0.5260064447017710    
     1.530355099888553        0.5227668092845995    
     1.540695337049962        0.5194808327052982    
     1.551035574211372        0.5161513965237333    
     1.561375811372781        0.5127812862583752    
     1.571716048534190        0.5093731940389913    
     1.582056285695599        0.5059297211969012    
     1.592396522857008        0.5024533807929098    
     1.602736760018417        0.4989466000842218    
     1.613076997179826        0.4954117229315769    
     1.623417234341235        0.4918510121478494    
     1.633757471502645        0.4882666517893263    
     1.644097708664054        0.4846607493908459    
     1.654437945825463        0.4810353381459574    
     1.664778182986872        0.4773923790332579    
     1.675118420148281        0.4737337628900157    
     1.685458657309690        0.4700613124341876    
     1.695798894471100        0.4663767842359073    
     1.706139131632509        0.4626818706395078    
     1.716479368793918        0.4589782016371198    
     1.726819605955327        0.4552673466948712    
     1.737159843116736        0.4515508165326926    
     1.747500080278145        0.4478300648587178    
     1.757840317439554        0.4441064900592543    
     1.768180554600963        0.4403814368452784    
     1.778520791762373        0.4366561978563907    
     1.788861028923782        0.4329320152231659    
     1.799201266085191        0.4292100820887944    
     1.809541503246600        0.4254915440909188    
     1.819881740408009        0.4217775008045394    
     1.830221977569418        0.4180690071468533    
     1.840562214730828        0.4143670747448810    
     1.850902451892237        0.4106726732667103    
     1.861242689053646        0.4069867317171849    
     1.871582926215055        0.4033101396988436    
     1.881923163376464        0.3996437486389030    
     1.892263400537873        0.3959883729830667    
     1.902603637699282        0.3923447913569297    
     1.912943874860692        0.3887137476957255    
     1.923284112022101        0.3850959523431673    
     1.933624349183510        0.3814920831201007    
     1.943964586344919        0.3779027863636898    
     1.954304823506328        0.3743286779378366    
     1.964645060667737        0.3707703442155226    
     1.974985297829146        0.3672283430337494    
     1.985325534990555        0.3637032046217434    
     1.995665772151965        0.3601954325030749    
     2.006006009313374        0.3567055043723329    
     2.016346246474783        0.3532338729469803    
     2.026686483636192        0.3497809667950061    
     2.037026720797601        0.3463471911389779    
     2.047366957959011        0.3429329286370839    
     2.057707195120420        0.3395385401417453    
     2.068047432281829        0.3361643654363666    
     2.078387669443238        0.3328107239507785    
     2.088727906604647        0.3294779154559190    
     2.099068143766056        0.3261662207382857    
     2.109408380927465        0.3228759022546826    
     2.119748618088874        0.3196072047677677    
     2.130088855250284        0.3163603559629085    
     2.140429092411693        0.3131355670468287    
     2.150769329573102        0.3099330333285265    
     2.161109566734511        0.3067529347829357    
     2.171449803895920        0.3035954365977806    
     2.181790041057329        0.3004606897040785    
     2.192130278218738        0.2973488312907235    
     2.202470515380147        0.2942599853035794    
     2.212810752541557        0.2911942629295016    
     2.223150989702966        0.2881517630656937    
     2.233491226864375        0.2851325727747948    
     2.243831464025784        0.2821367677260941    
     2.254171701187193        0.2791644126232439    
     2.264511938348603        0.2762155616188495    
     2.274852175510012        0.2732902587162899    
     2.285192412671420        0.2703885381591333    
     2.295532649832830        0.2675104248084796    
     2.305872886994239        0.2646559345085767    
     2.316213124155648        0.2618250744410310    
     2.326553361317057        0.2590178434679393    
     2.336893598478466        0.2562342324642456    
     2.347233835639876        0.2534742246396322    
     2.357574072801285        0.2507377958502449    
     2.367914309962694        0.2480249149005294    
     2.378254547124103        0.2453355438354747    
     2.388594784285512        0.2426696382235279    
     2.398935021446921        0.2400271474304502    
     2.409275258608330        0.2374080148843792    
     2.419615495769739        0.2348121783323432    
     2.429955732931149        0.2322395700884802    
     2.440295970092558        0.2296901172742035    
     2.450636207253967        0.2271637420505394    
     2.460976444415376        0.2246603618428772    
     2.471316681576785        0.2221798895583437    
     2.481656918738194        0.2197222337960220    
     2.491997155899603        0.2172872990502281    
     2.502337393061013        0.2148749859070416    
     2.512677630222422        0.2124851912342999    
     2.523017867383831        0.2101178083652407    
     2.533358104545240        0.2077727272759877    
     2.543698341706649        0.2054498347570585    
     2.554038578868059        0.2031490145790754    
     2.564378816029468        0.2008701476528525    
     2.574719053190877        0.1986131121840261    
     2.585059290352286        0.1963777838223951    
     2.595399527513695        0.1941640358061258    
     2.605739764675104        0.1919717391009846    
     2.616080001836513        0.1898007625347386    
     2.626420238997922        0.1876509729268811    
     2.636760476159332        0.1855222352138154    
     2.647100713320741        0.1834144125696421    
     2.657440950482150        0.1813273665226793    
     2.667781187643559        0.1792609570678493    
     2.678121424804968        0.1772150427750596    
     2.688461661966377        0.1751894808936951    
     2.698801899127786        0.1731841274533523    
     2.709142136289195        0.1711988373609191    
     2.719482373450605        0.1692334644941245    
     2.729822610612014        0.1672878617916611    
     2.740162847773423        0.1653618813399877    
     2.750503084934832        0.1634553744569205    
     2.760843322096241        0.1615681917721051    
     2.771183559257651        0.1597001833044757    
     2.781523796419060        0.1578511985367896    
     2.791864033580469        0.1560210864873324    
     2.802204270741878        0.1542096957788819    
     2.812544507903287        0.1524168747050182    
     2.822884745064696        0.1506424712938649    
     2.833224982226105        0.1488863333693390    
     2.843565219387514        0.1471483086099947    
     2.853905456548924        0.1454282446055344    
     2.864245693710333        0.1437259889110609    
     2.874585930871742        0.1420413890991461    
     2.884926168033151        0.1403742928097857    
     2.895266405194560        0.1387245477983043    
     2.905606642355969        0.1370920019812836    
     2.915946879517378        0.1354765034805738    
     2.926287116678787        0.1338779006654489    
     2.936627353840197        0.1322960421929719    
     2.946967591001606        0.1307307770466236    
     2.957307828163015        0.1291819545732530    
     2.967648065324424        0.1276494245184059    
     2.977988302485833        0.1261330370600850    
     2.988328539647243        0.1246326428409898    
     2.998668776808652        0.1231480929992921    
     3.009009013970061        0.1216792391979920    
     3.019349251131470        0.1202259336529031    
     3.029689488292879        0.1187880291593113    
     3.040029725454288        0.1173653791173547    
     3.050369962615697        0.1159578375561655    
     3.060710199777106        0.1145652591568134    
     3.071050436938516        0.1131874992740968    
     3.081390674099925        0.1118244139572168    
     3.091730911261334        0.1104758599693720    
     3.102071148422743        0.1091416948063134    
     3.112411385584152        0.1078217767138927    
     3.122751622745561        0.1065159647046417    
     3.133091859906970        0.1052241185734115    
     3.143432097068380        0.1039460989121095    
     3.153772334229789        0.1026817671235618    
     3.164112571391198        0.1014309854345331    
     3.174452808552607        0.1001936169079352    
     3.184793045714016        0.9896952545424782E-01
     3.195133282875425        0.9775857584218527E-01
     3.205473520036835        0.9656063370863308E-01
     3.215813757198243        0.9537556556788142E-01
     3.226153994359653        0.9420323882017737E-01
     3.236494231521062        0.9304352175962680E-01
     3.246834468682471        0.9189628358146433E-01
     3.257174705843880        0.9076139438871528E-01
     3.267514943005289        0.8963872519827537E-01
     3.277855180166699        0.8852814794642241E-01
     3.288195417328108        0.8742953549378926E-01
     3.298535654489517        0.8634276162981243E-01
     3.308875891650926        0.8526770107667753E-01
     3.319216128812335        0.8420422949278207E-01
     3.329556365973744        0.8315222347572983E-01
     3.339896603135153        0.8211156056487967E-01
     3.350236840296562        0.8108211924346213E-01
     3.360577077457972        0.8006377894028212E-01
     3.370917314619381        0.7905642003102327E-01
     3.381257551780790        0.7805992383916911E-01
     3.391597788942199        0.7707417263655723E-01
     3.401938026103608        0.7609904964358016E-01
     3.412278263265017        0.7513443902904665E-01
     3.422618500426426        0.7418022590971826E-01
     3.432958737587835        0.7323629634953405E-01
     3.443298974749245        0.7230253735853459E-01
     3.453639211910654        0.7137883689150039E-01
     3.463979449072063        0.7046508384631503E-01
     3.474319686233472        0.6956116806206336E-01
     3.484659923394881        0.6866698031687600E-01
     3.495000160556291        0.6778241232553368E-01
     3.505340397717700        0.6690735673684364E-01
     3.515680634879109        0.6604170713079235E-01
     3.526020872040518        0.6518535801548607E-01
     3.536361109201927        0.6433820482388990E-01
     3.546701346363336        0.6350014391037385E-01
     3.557041583524745        0.6267107254707470E-01
     3.567381820686154        0.6185088892008428E-01
     3.577722057847564        0.6103949212546750E-01
     3.588062295008973        0.6023678216512383E-01
     3.598402532170382        0.5944265994249590E-01
     3.608742769331791        0.5865702725813367E-01
     3.619083006493200        0.5787978680512212E-01
     3.629423243654609        0.5711084216437845E-01
     3.639763480816018        0.5635009779982660E-01
     3.650103717977428        0.5559745905345340E-01
     3.660443955138837        0.5485283214025542E-01
     3.670784192300246        0.5411612414308035E-01
     3.681124429461655        0.5338724300736911E-01
     3.691464666623064        0.5266609753580549E-01
     3.701804903784473        0.5195259738287770E-01
     3.712145140945883        0.5124665304935615E-01
     3.722485378107292        0.5054817587669486E-01
     3.732825615268701        0.4985707804135994E-01
     3.743165852430110        0.4917327254908861E-01
     3.753506089591519        0.4849667322908596E-01
     3.763846326752928        0.4782719472816226E-01
     3.774186563914337        0.4716475250481422E-01
     3.784526801075747        0.4650926282325611E-01
     3.794867038237156        0.4586064274740353E-01
     3.805207275398565        0.4521881013481347E-01
     3.815547512559974        0.4458368363058475E-01
     3.825887749721383        0.4395518266122218E-01
     3.836227986882792        0.4333322742846757E-01
     3.846568224044201        0.4271773890310090E-01
     3.856908461205610        0.4210863881871547E-01
     3.867248698367020        0.4150584966546811E-01
     3.877588935528429        0.4090929468381004E-01
     3.887929172689838        0.4031889785819829E-01
     3.898269409851247        0.3973458391079297E-01
     3.908609647012656        0.3915627829514065E-01
     3.918949884174066        0.3858390718984763E-01
     3.929290121335475        0.3801739749224586E-01
     3.939630358496883        0.3745667681205168E-01
     3.949970595658293        0.3690167346502201E-01
     3.960310832819702        0.3635231646660884E-01
     3.970651069981111        0.3580853552561336E-01
     3.980991307142520        0.3527026103784373E-01
     3.991331544303929        0.3473742407977568E-01
     4.001671781465339        0.3420995640221981E-01
     4.012012018626748        0.3368779042399669E-01
     4.022352255788157        0.3317085922562039E-01
     4.032692492949566        0.3265909654299314E-01
     4.043032730110975        0.3215243676111292E-01
     4.053372967272384        0.3165081490779320E-01
     4.063713204433793        0.3115416664739898E-01
     4.074053441595202        0.3066242827459887E-01
     4.084393678756611        0.3017553670813357E-01
     4.094733915918021        0.2969342948460449E-01
     4.105074153079430        0.2921604475228155E-01
     4.115414390240839        0.2874332126493108E-01
     4.125754627402248        0.2827519837566690E-01
     4.136094864563657        0.2781161603082299E-01
     4.146435101725067        0.2735251476385051E-01
     4.156775338886476        0.2689783568923959E-01
     4.167115576047885        0.2644752049646557E-01
     4.177455813209294        0.2600151144396233E-01
     4.187796050370703        0.2555975135312213E-01
     4.198136287532113        0.2512218360232293E-01
     4.208476524693522        0.2468875212098430E-01
     4.218816761854931        0.2425940138365178E-01
     4.229156999016340        0.2383407640411100E-01
     4.239497236177749        0.2341272272953155E-01
     4.249837473339158        0.2299528643464137E-01
     4.260177710500567        0.2258171411593264E-01
     4.270517947661976        0.2217195288589804E-01
     4.280858184823385        0.2176595036729976E-01
     4.291198421984794        0.2136365468747044E-01
     4.301538659146203        0.2096501447264646E-01
     4.311878896307613        0.2056997884233438E-01
     4.322219133469022        0.2017849740371072E-01
     4.332559370630431        0.1979052024605499E-01
     4.342899607791840        0.1940599793521620E-01
     4.353239844953249        0.1902488150811400E-01
     4.363580082114659        0.1864712246727399E-01
     4.373920319276068        0.1827267277539623E-01
     4.384260556437477        0.1790148484995990E-01
     4.394600793598886        0.1753351155786156E-01
     4.404941030760295        0.1716870621008856E-01
     4.415281267921705        0.1680702255642730E-01
     4.425621505083114        0.1644841478020643E-01
     4.435961742244523        0.1609283749307559E-01
     4.446301979405932        0.1574024572981811E-01
     4.456642216567340        0.1539059494320025E-01
     4.466982453728750        0.1504384099885473E-01
     4.477322690890159        0.1469994017019963E-01
     4.487662928051568        0.1435884913339269E-01
     4.498003165212977        0.1402052496231996E-01
     4.508343402374386        0.1368492512362104E-01
     4.518683639535795        0.1335200747174750E-01
     4.529023876697205        0.1302173024405794E-01
     4.539364113858614        0.1269405205594718E-01
     4.549704351020023        0.1236893189601011E-01
     4.560044588181432        0.1204632912124076E-01
     4.570384825342841        0.1172620345226566E-01
     4.580725062504251        0.1140851496861201E-01
     4.591065299665660        0.1109322410400974E-01
     4.601405536827069        0.1078029164172838E-01
     4.611745773988478        0.1046967870994774E-01
     4.622086011149887        0.1016134677716249E-01
     4.632426248311297        0.9855257647620675E-02
     4.642766485472706        0.9551373456795438E-02
     4.653106722634115        0.9249656666891270E-02
     4.663446959795523        0.8950070062381328E-02
     4.673787196956932        0.8652576745648089E-02
     4.684127434118342        0.8357140145767069E-02
     4.694467671279751        0.8063724356651741E-02
     4.704807908441160        0.7772296634379562E-02
     4.715148145602569        0.7482835138699044E-02
     4.725488382763978        0.7195342206313599E-02
     4.735828619925388        0.6909859378689244E-02
     4.746168857086797        0.6626479685974343E-02
     4.756509094248206        0.6345354618935973E-02
     4.766849331409615        0.6066695383054315E-02
     4.777189568571024        0.5790769338670842E-02
     4.787529805732434        0.5517893006364108E-02
     4.797870042893843        0.5248422991558890E-02
     4.808210280055252        0.4982745941488996E-02
     4.818550517216661        0.4721268357645304E-02
     4.828890754378070        0.4464406824415150E-02
     4.839230991539479        0.4212579005211967E-02
     4.849571228700889        0.3966195602180403E-02
     4.859911465862297        0.3725653366329797E-02
     4.870251703023706        0.3491329171415489E-02
     4.880591940185115        0.3263575117587966E-02
     4.890932177346524        0.3042714602145538E-02
     4.901272414507934        0.2829039278856782E-02
     4.911612651669343        0.2622806820062763E-02
     4.921952888830752        0.2424239394127585E-02
     4.932293125992161        0.2233522772701041E-02
     4.942633363153570        0.2050805986259199E-02
     4.952973600314980        0.1876201451520793E-02
     4.963313837476389        0.1709785499947249E-02
     4.973654074637798        0.1551599242156739E-02
     4.983994311799207        0.1401649708403442E-02
     4.994334548960616        0.1259911210014757E-02
     5.004674786122026        0.1126326870594747E-02
     5.015015023283435        0.1000810278551339E-02
     5.025355260444844        0.8832472136094526E-03
     5.035695497606253        0.7734973986037402E-03
     5.046035734767662        0.6713962225490679E-03
     5.056375971929072        0.5767563690265420E-03
     5.066716209090480        0.4893692599673383E-03
     5.077056446251889        0.4090061779456673E-03
     5.087396683413298        0.3354188359768453E-03
     5.097736920574707        0.2683389654374658E-03
     5.108077157736117        0.2074760415874810E-03
     5.118417394897526        0.1525111260530113E-03
     5.128757632058935        0.1030814656529409E-03
     5.139097869220344        0.5873883668276346E-04
     5.149438106381753        0.1879618202137313E-04
     5.159778343543162         0.000000000000000    
  0  3  2  0  0.000000   #orbital l, n, z, is_polarized, population
 500    0.7029617160121533E-02     3.507778962900645     # npts, delta, cutoff
     0.000000000000000       -0.2298714342944439    
    0.7029617160121533E-02   -0.2297817047180715    
    0.1405923432024307E-01   -0.2295084402691966    
    0.2108885148036460E-01   -0.2290530488572984    
    0.2811846864048613E-01   -0.2284156075975368    
    0.3514808580060766E-01   -0.2275962252302236    
    0.4217770296072920E-01   -0.2265950437920041    
    0.4920732012085073E-01   -0.2254122403730087    
    0.5623693728097226E-01   -0.2240480291872385    
    0.6326655444109379E-01   -0.2225026639642611    
    0.7029617160121532E-01   -0.2207764406456357    
    0.7732578876133686E-01   -0.2188697003626928    
    0.8435540592145839E-01   -0.2167828326686548    
    0.9138502308157992E-01   -0.2145162789953497    
    0.9841464024170146E-01   -0.2120705363024959    
    0.1054442574018230       -0.2094461608855881    
    0.1124738745619445       -0.2066437723067853    
    0.1195034917220660       -0.2036640574118839    
    0.1265331088821876       -0.2005077743954485    
    0.1335627260423091       -0.1971757568755046    
    0.1405923432024306       -0.1936689179388337    
    0.1476219603625522       -0.1899882541179003    