<preamble>

<basis_specs>
===============================================================================
Pb                   Z=  82    Mass=  207.20        Charge= 0.17977+309
Lmxo=2 Lmxkb= 2    BasisType=split      Semic=T
L=0  Nsemic=0  Cnfigmx=6
          i=1  nzeta=2  polorb=0  (6s)
            splnorm:   0.15000    
               vcte:    40.000    
               rinn:    5.1796    
               qcoe:    0.0000    
               qyuk:    0.0000    
               qwid:   0.10000E-01
                rcs:    5.7494      4.0324    
            lambdas:    1.0000      1.0000    
L=1  Nsemic=0  Cnfigmx=6
          i=1  nzeta=2  polorb=0  (6p)  (to be polarized non-perturbatively)
            splnorm:   0.15000    
               vcte:    40.000    
               rinn:    7.2808    
               qcoe:    0.0000    
               qyuk:    0.0000    
               qwid:   0.10000E-01
                rcs:    8.0816      5.8364    
            lambdas:    1.0000      1.0000    
L=2  Nsemic=1  Cnfigmx=6
          i=1  nzeta=1  polorb=0  (5d)  (semicore shell)
            splnorm:   0.15000    
               vcte:    40.000    
               rinn:    3.5075    
               qcoe:    0.0000    
               qyuk:    0.0000    
               qwid:   0.10000E-01
                rcs:    3.8972    
            lambdas:    1.0000    
          i=2  nzeta=1  polorb=0  (6d)  (non-perturbative polarization shell)
            splnorm:   0.15000    
               vcte:    40.000    
               rinn:    7.2808    
               qcoe:    0.0000    
               qyuk:    0.0000    
               qwid:   0.10000E-01
                rcs:    8.0816    
            lambdas:    1.0000    
-------------------------------------------------------------------------------
L=0  Nkbl=1  erefs: 0.17977+309
L=1  Nkbl=1  erefs: 0.17977+309
L=2  Nkbl=2  erefs: 0.17977+309 0.17977+309
===============================================================================
</basis_specs>

<pseudopotential_header>
 Pb pw nrl pcec
 ONCVPSP-3.2018-03-09Hamann's oncvpsp                        
 6s 2.00  r= 2.43/6p 2.00  r= 2.43/5d10.00  r= 2.10/                    5d:6s:6p:
</pseudopotential_header>
</preamble>
Pb                            # Symbol
Pb                            # Label
   82                         # Atomic number
     14.0000000000                             # Valence charge
     207.200000000        # Mass 
     149.075921457        # Self energy 
   2   6                      # Lmax for basis, no. of nl orbitals 
   2   6                      # Lmax for projectors, no. of nl KB projectors
# PAOs:__________________________
  0  6  1  0  2.000000   #orbital l, n, z, is_polarized, population
 500    0.1152180342238887E-01     5.749379907772045     # npts, delta, cutoff
     0.000000000000000        0.1005411202731523    
    0.1152180342238887E-01    0.1005946083161494    
    0.2304360684477774E-01    0.1007620282556795    
    0.3456541026716660E-01    0.1010408226454997    
    0.4608721368955547E-01    0.1014306313480172    
    0.5760901711194434E-01    0.1019309521159175    
    0.6913082053433320E-01    0.1025411415815491    
    0.8065262395672207E-01    0.1032604169087686    
    0.9217442737911094E-01    0.1040878578466993    
    0.1036962308014998        0.1050224091498165    
    0.1152180342238887        0.1060628833501406    
    0.1267398376462776        0.1072079638702055    
    0.1382616410686664        0.1084562084653125    
    0.1497834444910553        0.1098060529827513    
    0.1613052479134441        0.1112558154246832    
    0.1728270513358330        0.1128037003003832    
    0.1843488547582219        0.1144478032525643    
    0.1958706581806108        0.1161861159415833    
    0.2073924616029996        0.1180165311704626    
    0.2189142650253885        0.1199368482328577    
    0.2304360684477774        0.1219447784653622    
    0.2419578718701662        0.1240379509848809    
    0.2534796752925551        0.1262139185911992    
    0.2650014787149439        0.1284701638143674    
    0.2765232821373328        0.1308041050860695    
    0.2880450855597217        0.1332131030137855    
    0.2995668889821105        0.1356944667362731    
    0.3110886924044994        0.1382454603386895    
    0.3226104958268883        0.1408633093055542    
    0.3341322992492772        0.1435452069897138    
    0.3456541026716660        0.1462883210755113    
    0.3571759060940549        0.1490898000144832    
    0.3686977095164438        0.1519467794121212    
    0.3802195129388326        0.1548563883445062    
    0.3917413163612215        0.1578157555839999    
    0.4032631197836103        0.1608220157136080    
    0.4147849232059992        0.1638723151101542    
    0.4263067266283881        0.1669638177769884    
    0.4378285300507770        0.1700937110076160    
    0.4493503334731658        0.1732592108623609    
    0.4608721368955547        0.1764575674409739    
    0.4723939403179436        0.1796860699349494    
    0.4839157437403324        0.1829420514442331    
    0.4954375471627213        0.1862228935439696    
    0.5069593505851102        0.1895260305879639    
    0.5184811540074991        0.1928489537365961    
    0.5300029574298879        0.1961892146980435    
    0.5415247608522767        0.1995444291728099    
    0.5530465642746656        0.2029122799927520    
    0.5645683676970545        0.2062905199469988    
    0.5760901711194434        0.2096769742884046    
    0.5876119745418322        0.2130695429154254    
    0.5991337779642211        0.2164662022255910    
    0.6106555813866100        0.2198650066380173    
    0.6221773848089989        0.2232640897836911    
    0.6336991882313877        0.2266616653635543    
    0.6452209916537766        0.2300560276756808    
    0.6567427950761654        0.2334455518141245    
    0.6682645984985544        0.2368286935432571    
    0.6797864019209432        0.2402039888526630    
    0.6913082053433320        0.2435700531988566    
    0.7028300087657209        0.2469255804412806    
    0.7143518121881098        0.2502693414811722    
    0.7258736156104987        0.2536001826130123    
    0.7373954190328875        0.2569170235993199    
    0.7489172224552764        0.2602188554805855    
    0.7604390258776652        0.2635047381330947    
    0.7719608293000542        0.2667737975883159    
    0.7834826327224430        0.2700252231283704    
    0.7950044361448318        0.2732582641729069    
    0.8065262395672207        0.2764722269734340    
    0.8180480429896096        0.2796664711318164    
    0.8295698464119985        0.2828404059602496    
    0.8410916498343873        0.2859934867005435    
    0.8526134532567762        0.2891252106210038    
    0.8641352566791650        0.2922351130095640    
    0.8756570601015540        0.2953227630821371    
    0.8871788635239428        0.2983877598253698    
    0.8987006669463317        0.3014297277931317    
    0.9102224703687205        0.3044483128761444    
    0.9217442737911095        0.3074431780641381    
    0.9332660772134983        0.3104139992198484    
    0.9447878806358871        0.3133604608839967    
    0.9563096840582760        0.3162822521301557    
    0.9678314874806648        0.3191790624880961    
    0.9793532909030538        0.3220505779538168    
    0.9908750943254426        0.3248964771040073    
     1.002396897747831        0.3277164273321531    
     1.013918701170220        0.3305100812229209    
     1.025440504592609        0.3332770730807705    
     1.036962308014998        0.3360170156280468    
     1.048484111437387        0.3387294968870093    
     1.060005914859776        0.3414140772594267    
     1.071527718282165        0.3440702868164685    
     1.083049521704553        0.3466976228107078    
     1.094571325126942        0.3492955474210482    
     1.106093128549331        0.3518634857403838    
     1.117614931971720        0.3544008240147352    
     1.129136735394109        0.3569069081415228    
     1.140658538816498        0.3593810424335174    
     1.152180342238887        0.3618224886538810    
     1.163702145661276        0.3642304653265373    
     1.175223949083664        0.3666041473249602    
     1.186745752506053        0.3689426657412829    
     1.198267555928442        0.3712451080364361    
     1.209789359350831        0.3735105184708717    
     1.221311162773220        0.3757378988142187    
     1.232832966195609        0.3779262093310785    
     1.244354769617998        0.3800743700390045    
     1.255876573040386        0.3821812622335716    
     1.267398376462775        0.3842457302743600    
     1.278920179885164        0.3862665836245649    
     1.290441983307553        0.3882425991359186    
     1.301963786729942        0.3901725235696020    
     1.313485590152331        0.3920550763428313    
     1.325007393574720        0.3938889524899081    
     1.336529196997109        0.3956728258256224    
     1.348051000419497        0.3974053522980757    
     1.359572803841886        0.3990851735172273    
     1.371094607264275        0.4007109204447392    
     1.382616410686664        0.4022812172300511    
     1.394138214109053        0.4037946851770120    
     1.405660017531442        0.4052499468248762    
     1.417181820953831        0.4066456301270049    
     1.428703624376220        0.4079803727102207    
     1.440225427798608        0.4092528261974389    
     1.451747231220997        0.4104616605759426    
     1.463269034643386        0.4116055685934883    
     1.474790838065775        0.4126832701643216    
     1.486312641488164        0.4136935167671286    
     1.497834444910553        0.4146350958170049    
     1.509356248332942        0.4155068349936066    
     1.520878051755330        0.4163076065078382    
     1.532399855177719        0.4170363312896724    
     1.543921658600108        0.4176919830800073    
     1.555443462022497        0.4182735924098629    
     1.566965265444886        0.4187802504506477    
     1.578487068867275        0.4192111127197536    
     1.590008872289664        0.4195654026263059    
     1.601530675712053        0.4198424148214013    
     1.613052479134441        0.4200415156566807    
     1.624574282556830        0.4201621475513389    
     1.636096085979219        0.4202038341857964    
     1.647617889401608        0.4201661821702636    
     1.659139692823997        0.4200488833483095    
     1.670661496246386        0.4198517168555795    
     1.682183299668775        0.4195745509240543    
     1.693705103091164        0.4192173444241499    
     1.705226906513552        0.4187801481379723    
     1.716748709935941        0.4182631057581055    
     1.728270513358330        0.4176664546073575    
     1.739792316780719        0.4169905260759934    
     1.751314120203108        0.4162357457740611    
     1.762835923625497        0.4154026333975282    
     1.774357727047886        0.4144918023080417    
     1.785879530470274        0.4135039588272345    
     1.797401333892663        0.4124399012475810    
     1.808923137315052        0.4113005185629039    
     1.820444940737441        0.4100867889226909    
     1.831966744159830        0.4087997779056388    
     1.843488547582219        0.4074406366352152    
     1.855010351004608        0.4060105983016123    
     1.866532154426997        0.4045109769000758    
     1.878053957849385        0.4029431639280226    
     1.889575761271774        0.4013086253264845    
     1.901097564694163        0.3996088982023485    
     1.912619368116552        0.3978455873430341    
     1.924141171538941        0.3960203615360565    
     1.935662974961330        0.3941349497066298    
     1.947184778383719        0.3921911368871304    
     1.958706581806108        0.3901907600328243    
     1.970228385228496        0.3881357036988187    
     1.981750188650885        0.3860278955936690    
     1.993271992073274        0.3838693020254971    
     2.004793795495663        0.3816619232568365    
     2.016315598918052        0.3794077887847032    
     2.027837402340441        0.3771089525626312    
     2.039359205762830        0.3747674881815655    
     2.050881009185218        0.3723854840266034    
     2.062402812607607        0.3699650384266034    
     2.073924616029996        0.3675082548136587    
     2.085446419452385        0.3650172369092951    
     2.096968222874774        0.3624940839541346    
     2.108490026297163        0.3599408859975087    
     2.120011829719552        0.3573597192631899    
     2.131533633141940        0.3547526416070994    
     2.143055436564330        0.3521216880824188    
     2.154577239986718        0.3494688666270034    
     2.166099043409107        0.3467961538875613    
     2.177620846831496        0.3441054911944680    
     2.189142650253885        0.3413987807003465    
     2.200664453676274        0.3386778816950082    
     2.212186257098662        0.3359446071085287    
     2.223708060521052        0.3332007202134838    
     2.235229863943440        0.3304479315365711    
     2.246751667365829        0.3276878959890101    
     2.258273470788218        0.3249222102242265    
     2.269795274210607        0.3221524102304033    
     2.281317077632996        0.3193799691645933    
     2.292838881055385        0.3166062954340976    
     2.304360684477774        0.3138327310298808    
     2.315882487900162        0.3110605501157905    
     2.327404291322551        0.3082909578763694    
     2.338926094744940        0.3055250896250556    
     2.350447898167329        0.3027640101572783    
     2.361969701589718        0.3000087132412139    
     2.373491505012107        0.2972601218021199    
     2.385013308434496        0.2945190886996499    
     2.396535111856884        0.2917863966754507    
     2.408056915279273        0.2890627564423812    
     2.419578718701662        0.2863488069418245    
     2.431100522124051        0.2836451222405325    
     2.442622325546440        0.2809522225421071    
     2.454144128968829        0.2782705860995102    
     2.465665932391218        0.2756006604856869    
     2.477187735813607        0.2729428719178977    
     2.488709539235995        0.2702976282926673    
     2.500231342658384        0.2676653179984434    
     2.511753146080773        0.2650463084150079    
     2.523274949503162        0.2624409469829517    
     2.534796752925551        0.2598495624131514    
     2.546318556347940        0.2572724654786077    
     2.557840359770329        0.2547099494956440    
     2.569362163192717        0.2521622909221483    
     2.580883966615106        0.2496297499439694    
     2.592405770037495        0.2471125710433126    
     2.603927573459884        0.2446109835494488    
     2.615449376882273        0.2421252021724684    
     2.626971180304662        0.2396554275205649    
     2.638492983727051        0.2372018466013153    
     2.650014787149439        0.2347646333074160    
     2.661536590571828        0.2323439488873177    
     2.673058393994217        0.2299399424012032    
     2.684580197416606        0.2275527511627214    
     2.696102000838995        0.2251825011668999    
     2.707623804261384        0.2228293075046343    
     2.719145607683773        0.2204932747641457    
     2.730667411106162        0.2181744974197943    
     2.742189214528551        0.2158730602086103    
     2.753711017950939        0.2135890384949157    
     2.765232821373328        0.2113224986233792    
     2.776754624795717        0.2090734982608508    
     2.788276428218106        0.2068420867273104    
     2.799798231640495        0.2046283053162515    
     2.811320035062884        0.2024321876048145    
     2.822841838485273        0.2002537597539798    
     2.834363641907661        0.1980930407991136    
     2.845885445330050        0.1959500429311586    
     2.857407248752439        0.1938247717687489    
     2.868929052174828        0.1917172266215252    
     2.880450855597217        0.1896274007449106    
     2.891972659019606        0.1875552815866116    
     2.903494462441995        0.1855008510250867    
     2.915016265864383        0.1834640856002350    
     2.926538069286772        0.1814449567365329    
     2.938059872709161        0.1794434309588525    
     2.949581676131550        0.1774594701011856    
     2.961103479553939        0.1754930315084844    
     2.972625282976328        0.1735440682318374    
     2.984147086398717        0.1716125292171735    
     2.995668889821105        0.1696983594877039    
     3.007190693243495        0.1678015003202837    
     3.018712496665883        0.1659218894158876    
     3.030234300088272        0.1640594610643755    
     3.041756103510661        0.1622141463037256    
     3.053277906933050        0.1603858730739074    
     3.064799710355439        0.1585745663655547    
     3.076321513777827        0.1567801483636070    
     3.087843317200217        0.1550025385860657    
     3.099365120622605        0.1532416540180266    
     3.110886924044994        0.1514974092411244    
     3.122408727467383        0.1497697165585408    
     3.133930530889772        0.1480584861157110    
     3.145452334312161        0.1463636260168568    
     3.156974137734549        0.1446850424374879    
     3.168495941156939        0.1430226397329860    
     3.180017744579327        0.1413763205434002    
     3.191539548001716        0.1397459858945724    
     3.203061351424105        0.1381315352957020    
     3.214583154846494        0.1365328668334700    
     3.226104958268883        0.1349498772628225    
     3.237626761691272        0.1333824620945233    
     3.249148565113661        0.1318305156795769    
     3.260670368536049        0.1302939312906176    
     3.272192171958439        0.1287726012003640    
     3.283713975380827        0.1272664167572290    
     3.295235778803216        0.1257752684581777    
     3.306757582225605        0.1242990460189165    
     3.318279385647994        0.1228376384415025    
     3.329801189070383        0.1213909340794529    
     3.341322992492771        0.1199588207004328    
     3.352844795915161        0.1185411855466004    
     3.364366599337549        0.1171379153926842    
     3.375888402759938        0.1157488966018645    
     3.387410206182327        0.1143740151795255    
     3.398932009604716        0.1130131568249550    
     3.410453813027105        0.1116662069810484    
     3.421975616449493        0.1103330508820861    
     3.433497419871883        0.1090135735996454    
     3.445019223294271        0.1077076600867062    
     3.456541026716660        0.1064151952200107    
     3.468062830139049        0.1051360638407296    
     3.479584633561438        0.1038701507934950    
     3.491106436983827        0.1026173409638489    
     3.502628240406216        0.1013775193141603    
     3.514150043828605        0.1001505709180618    
     3.525671847250993        0.9893638099345015E-01
     3.537193650673383        0.9773483493410327E-01
     3.548715454095771        0.9654581833995528E-01
     3.560237257518160        0.9536921704607344E-01
     3.571759060940549        0.9420491715038230E-01
     3.583280864362938        0.9305280504017371E-01
     3.594802667785327        0.9191276741744454E-01
     3.606324471207715        0.9078469132309974E-01
     3.617846274630105        0.8966846416005954E-01
     3.629368078052493        0.8856397371530586E-01
     3.640889881474882        0.8747110818090456E-01
     3.652411684897271        0.8638975617403717E-01
     3.663933488319660        0.8531980675607534E-01
     3.675455291742049        0.8426114945073035E-01
     3.686977095164438        0.8321367426130782E-01
     3.698498898586827        0.8217727168709958E-01
     3.710020702009215        0.8115183273894096E-01
     3.721542505431604        0.8013724895396158E-01
     3.733064308853993        0.7913341240955808E-01
     3.744586112276382        0.7814021573661320E-01
     3.756107915698771        0.7715755213199041E-01
     3.767629719121160        0.7618531537032625E-01
     3.779151522543549        0.7522339981514574E-01
     3.790673325965937        0.7427170042932391E-01
     3.802195129388326        0.7333011278491663E-01
     3.813716932810715        0.7239853307238210E-01
     3.825238736233104        0.7147685810921559E-01
     3.836760539655493        0.7056498534801521E-01
     3.848282343077882        0.6966281288400268E-01
     3.859804146500271        0.6877023946201551E-01
     3.871325949922659        0.6788716448299001E-01
     3.882847753345049        0.6701348800995428E-01
     3.894369556767437        0.6614911077354722E-01
     3.905891360189826        0.6529393417708185E-01
     3.917413163612215        0.6444786030116940E-01
     3.928934967034604        0.6361079190791871E-01
     3.940456770456993        0.6278263244472844E-01
     3.951978573879382        0.6196328604768536E-01
     3.963500377301771        0.6115265754458481E-01
     3.975022180724159        0.6035065245758552E-01
     3.986543984146548        0.5955717700551422E-01
     3.998065787568937        0.5877213810583156E-01
     4.009587590991326        0.5799544337627426E-01
     4.021109394413715        0.5722700113618270E-01
     4.032631197836103        0.5646672040752872E-01
     4.044153001258493        0.5571451091565470E-01
     4.055674804680882        0.5497028308973248E-01
     4.067196608103270        0.5423394806295753E-01
     4.078718411525659        0.5350541767248454E-01
     4.090240214948048        0.5278460445911702E-01
     4.101762018370437        0.5207142166676000E-01
     4.113283821792826        0.5136578324164517E-01
     4.124805625215215        0.5066760383133857E-01
     4.136327428637603        0.4997679878353833E-01
     4.147849232059992        0.4929328414467105E-01
     4.159371035482381        0.4861697665829752E-01
     4.170892838904770        0.4794779376333162E-01
     4.182414642327159        0.4728565359208541E-01
     4.193936445749547        0.4663047496814692E-01
     4.205458249171937        0.4598217740409217E-01
     4.216980052594326        0.4534068109904466E-01
     4.228501856016714        0.4470590693608514E-01
     4.240023659439103        0.4407777647951766E-01
     4.251545462861492        0.4345621197200370E-01
     4.263067266283881        0.4284113633156875E-01
     4.274589069706270        0.4223247314848771E-01
     4.286110873128659        0.4163014668205883E-01
     4.297632676551047        0.4103408185724979E-01
     4.309154479973436        0.4044420426123901E-01
     4.320676283395826        0.3986044013986954E-01
     4.332198086818214        0.3928271639400380E-01
     4.343719890240603        0.3871096057577539E-01
     4.355241693662992        0.3814510088476362E-01
     4.366763497085381        0.3758506616408649E-01
     4.378285300507770        0.3703078589641497E-01
     4.389807103930159        0.3648219019991409E-01
     4.401328907352547        0.3593920982411376E-01
     4.412850710774936        0.3540177614571263E-01
     4.424372514197325        0.3486982116432172E-01
     4.435894317619714        0.3434327749814949E-01
     4.447416121042103        0.3382207837963273E-01
     4.458937924464491        0.3330615765101724E-01
     4.470459727886881        0.3279544975988982E-01
     4.481981531309270        0.3228988975466526E-01
     4.493503334731658        0.3178941328003263E-01
     4.505025138154047        0.3129395657236191E-01
     4.516546941576436        0.3080345645507523E-01
     4.528068744998825        0.3031785033398502E-01
     4.539590548421214        0.2983707619260114E-01
     4.551112351843603        0.2936107258741071E-01
     4.562634155265991        0.2888977864313174E-01
     4.574155958688380        0.2842313404794386E-01
     4.585677762110770        0.2796107904869793E-01
     4.597199565533158        0.2750355444610722E-01
     4.608721368955547        0.2705050158992102E-01
     4.620243172377936        0.2660186237408490E-01
     4.631764975800325        0.2615757923188675E-01
     4.643286779222714        0.2571759513109259E-01
     4.654808582645103        0.2528185356907419E-01
     4.666330386067491        0.2485029856792678E-01
     4.677852189489880        0.2442287466958413E-01
     4.689373992912270        0.2399952693092646E-01
     4.700895796334658        0.2358020091888804E-01
     4.712417599757047        0.2316484270556219E-01
     4.723939403179435        0.2275339886330682E-01
     4.735461206601824        0.2234581645985173E-01
     4.746983010024214        0.2194204305340831E-01
     4.758504813446602        0.2154202668778352E-01
     4.770026616868991        0.2114571588749889E-01
     4.781548420291380        0.2075305965291611E-01
     4.793070223713769        0.2036400745536972E-01
     4.804592027136158        0.1997850923230813E-01
     4.816113830558547        0.1959651538244442E-01
     4.827635633980935        0.1921797676091761E-01
     4.839157437403324        0.1884284467446389E-01
     4.850679240825714        0.1847107087660186E-01
     4.862201044248102        0.1810260756282894E-01
     4.873722847670491        0.1773740736583241E-01
     4.885244651092880        0.1737542335071454E-01
     4.896766454515268        0.1701660901023253E-01
     4.908288257937658        0.1666091826005511E-01
     4.919810061360047        0.1630830543403407E-01
     4.931331864782435        0.1595872527949414E-01
     4.942853668204824        0.1561213295253961E-01
     4.954375471627213        0.1526848401337918E-01
     4.965897275049602        0.1492773442166952E-01
     4.977419078471991        0.1458984053187739E-01
     4.988940881894379        0.1425475908866213E-01
     5.000462685316768        0.1392244722227681E-01
     5.011984488739158        0.1359286244399079E-01
     5.023506292161546        0.1326596264153244E-01
     5.035028095583935        0.1294170607455251E-01
     5.046549899006324        0.1262005137010968E-01
     5.058071702428713        0.1230095751817662E-01
     5.069593505851102        0.1198438386716896E-01
     5.081115309273491        0.1167029011949547E-01
     5.092637112695879        0.1135863632713133E-01
     5.104158916118268        0.1104938288721367E-01
     5.115680719540658        0.1074249053765954E-01
     5.127202522963046        0.1043792035280754E-01
     5.138724326385435        0.1013563373908162E-01
     5.150246129807824        0.9835592430679108E-02
     5.161767933230212        0.9537758485280993E-02
     5.173289736652602        0.9242094279786606E-02
     5.184811540074991        0.8948562506071485E-02
     5.196333343497379        0.8657126166768597E-02
     5.207855146919768        0.8367748571074181E-02
     5.219376950342157        0.8080393332338200E-02
     5.230898753764546        0.7795024463904721E-02
     5.242420557186935        0.7511607590172063E-02
     5.253942360609323        0.7230115271754401E-02
     5.265464164031712        0.6950538611553023E-02
     5.276985967454102        0.6672902825390674E-02
     5.288507770876490        0.6397281872545990E-02
     5.300029574298879        0.6123808356681051E-02
     5.311551377721268        0.5852677327344535E-02
     5.323073181143656        0.5584144448396423E-02
     5.334594984566046        0.5318519862094508E-02
     5.346116787988435        0.5056159244647722E-02
     5.357638591410823        0.4797453366885550E-02
     5.369160394833212        0.4542817174261094E-02
     5.380682198255601        0.4292679102411120E-02
     5.392204001677990        0.4047471095023836E-02
     5.403725805100379        0.3807619600102789E-02
     5.415247608522768        0.3573537683357574E-02
     5.426769411945156        0.3345618302946327E-02
     5.438291215367546        0.3124228727525143E-02
     5.449813018789935        0.2909706040544406E-02
     5.461334822212323        0.2702353650975819E-02
     5.472856625634712        0.2502438718990020E-02
     5.484378429057101        0.2310190400801381E-02
     5.495900232479490        0.2125798817357450E-02
     5.507422035901879        0.1949414654945698E-02
     5.518943839324267        0.1781149310901096E-02
     5.530465642746656        0.1621075503563398E-02
     5.541987446169045        0.1469228271896607E-02
     5.553509249591434        0.1325606296330805E-02
     5.565031053013823        0.1190173478133583E-02
     5.576552856436212        0.1062860719708539E-02
     5.588074659858600        0.9435678523798422E-03
     5.599596463280990        0.8321656610985355E-03
     5.611118266703379        0.7284979565296576E-03
     5.622640070125767        0.6323836431708421E-03
     5.634161873548156        0.5436187257306065E-03
     5.645683676970545        0.4619781815385678E-03
     5.657205480392934        0.3872175974026464E-03
     5.668727283815323        0.3190744104543891E-03
     5.680249087237712        0.2572684708266832E-03
     5.691770890660100        0.2015013769318444E-03
     5.703292694082490        0.1514533938844550E-03
     5.714814497504879        0.1067750289581252E-03
     5.726336300927267        0.6706470827651564E-04
     5.737858104349656        0.3179979603798679E-04
     5.749379907772045         0.000000000000000    
  0  6  2  0  0.000000   #orbital l, n, z, is_polarized, population
 500    0.8080890951412456E-02     4.032364584754816     # npts, delta, cutoff
     0.000000000000000       -0.1778140952461493    
    0.8080890951412456E-02   -0.1777624382486602    
    0.1616178190282491E-01   -0.1775933572031687    
    0.2424267285423737E-01   -0.1773116686691145    
    0.3232356380564982E-01   -0.1769175496015992    
    0.4040445475706228E-01   -0.1764112456635156    
    0.4848534570847474E-01   -0.1757930718801481    
    0.5656623665988719E-01   -0.1750634123682109    
    0.6464712761129965E-01   -0.1742227198708096    
    0.7272801856271210E-01   -0.1732715151803836    