<preamble>

<basis_specs>
===============================================================================
Re                   Z=  75    Mass=  186.21        Charge= 0.17977+309
Lmxo=2 Lmxkb= 3    BasisType=split      Semic=T
L=0  Nsemic=1  Cnfigmx=6
          i=1  nzeta=1  polorb=0  (5s)  (semicore shell)
            splnorm:   0.15000    
               vcte:    40.000    
               rinn:    2.5318    
               qcoe:    0.0000    
               qyuk:    0.0000    
               qwid:   0.10000E-01
                rcs:    2.8103    
            lambdas:    1.0000    
          i=2  nzeta=2  polorb=0  (6s)  (to be polarized non-perturbatively)
            splnorm:   0.15000    
               vcte:    40.000    
               rinn:    6.0738    
               qcoe:    0.0000    
               qyuk:    0.0000    
               qwid:   0.10000E-01
                rcs:    6.7487      4.8151    
            lambdas:    1.0000      1.0000    
L=1  Nsemic=1  Cnfigmx=6
          i=1  nzeta=1  polorb=0  (5p)  (semicore shell)
            splnorm:   0.15000    
               vcte:    40.000    
               rinn:    3.0086    
               qcoe:    0.0000    
               qyuk:    0.0000    
               qwid:   0.10000E-01
                rcs:    3.3396    
            lambdas:    1.0000    
          i=2  nzeta=1  polorb=0  (6p)  (non-perturbative polarization shell)
            splnorm:   0.15000    
               vcte:    40.000    
               rinn:    6.0799    
               qcoe:    0.0000    
               qyuk:    0.0000    
               qwid:   0.10000E-01
                rcs:    6.7487    
            lambdas:    1.0000    
L=2  Nsemic=0  Cnfigmx=5
          i=1  nzeta=2  polorb=0  (5d)
            splnorm:   0.15000    
               vcte:    40.000    
               rinn:    5.1486    
               qcoe:    0.0000    
               qyuk:    0.0000    
               qwid:   0.10000E-01
                rcs:    5.7149      3.7970    
            lambdas:    1.0000      1.0000    
-------------------------------------------------------------------------------
L=0  Nkbl=2  erefs: 0.17977+309 0.17977+309
L=1  Nkbl=2  erefs: 0.17977+309 0.17977+309
L=2  Nkbl=1  erefs: 0.17977+309
L=3  Nkbl=1  erefs: 0.17977+309
===============================================================================
</basis_specs>

<pseudopotential_header>
 Re pw nrl pcec
 ONCVPSP-3.2018-03-09Hamann's oncvpsp                        
 5s 2.00  r= 1.61/5p 6.00  r= 1.61/5d 5.00  r= 1.61/5f 0.00  r= 2.02/   5s:5p:5d:6s:
</pseudopotential_header>
</preamble>
Re                            # Symbol
Re                            # Label
   75                         # Atomic number
     15.0000000000                             # Valence charge
     186.210000000        # Mass 
     225.553997414        # Self energy 
   2   7                      # Lmax for basis, no. of nl orbitals 
   3   8                      # Lmax for projectors, no. of nl KB projectors
# PAOs:__________________________
  0  5  1  0  2.000000   #orbital l, n, z, is_polarized, population
 500    0.5631787719702185E-02     2.810262072131390     # npts, delta, cutoff
     0.000000000000000        0.9869523633439791    
    0.5631787719702185E-02    0.9869918054878272    
    0.1126357543940437E-01    0.9871839250285105    
    0.1689536315910655E-01    0.9875040034146747    
    0.2252715087880874E-01    0.9879518047119393    
    0.2815893859851093E-01    0.9885270119545213    
    0.3379072631821311E-01    0.9892292200402336    
    0.3942251403791529E-01    0.9900579349412112    
    0.4505430175761748E-01    0.9910125737532700    
    0.5068608947731967E-01    0.9920924649752838    
    0.5631787719702185E-01    0.9932968488966972    
    0.6194966491672404E-01    0.9946248780598568    
    0.6758145263642622E-01    0.9960756177858895    
    0.7321324035612840E-01    0.9976480467596778    
    0.7884502807583059E-01    0.9993410576718977    
    0.8447681579553278E-01     1.001153457916988    
    0.9010860351523496E-01     1.003083970346375    
    0.9574039123493715E-01     1.005131234076417    
    0.1013721789546393         1.007293805350622    
    0.1070039666743415         1.009570158455698    
    0.1126357543940437         1.011958686691035    
    0.1182675421137459         1.014457703391165    
    0.1238993298334481         1.017065443000748    
    0.1295311175531502         1.019780062201608    
    0.1351629052728524         1.022599641091309    
    0.1407946929925546         1.025522184412736    
    0.1464264807122568         1.028545622834107    
    0.1520582684319590         1.031667814278830    
    0.1576900561516612         1.034886545304552    
    0.1633218438713634         1.038199532530750    
    0.1689536315910656         1.041604424114151    
    0.1745854193107677         1.045098801271230    
    0.1802172070304699         1.048680179847033    
    0.1858489947501721         1.052346011929484    
    0.1914807824698743         1.056093687508333    
    0.1971125701895765         1.059920536177847    
    0.2027443579092787         1.063823828882311    
    0.2083761456289809         1.067800779703358    
    0.2140079333486830         1.071848547688119    
    0.2196397210683852         1.075964238717128    
    0.2252715087880874         1.080144907410879    
    0.2309032965077896         1.084387559073904    
    0.2365350842274918         1.088689151675172    
    0.2421668719471940         1.093046597863597    
    0.2477986596668962         1.097456767017372    
    0.2534304473865983         1.101916487325816    
    0.2590622351063005         1.106422547902394    
    0.2646940228260027         1.110971700927504    
    0.2703258105457049         1.115560663819577    
    0.2759575982654071         1.120186121433051    
    0.2815893859851092         1.124844728281651    
    0.2872211737048114         1.129533110785452    
    0.2928529614245136         1.134247869540108    
    0.2984847491442158         1.138985581606614    
    0.3041165368639180         1.143742802819931    
    0.3097483245836202         1.148516070114751    
    0.3153801123033224         1.153301903866676    
    0.3210119000230245         1.158096810247017    
    0.3266436877427267         1.162897283589406    
    0.3322754754624289         1.167699808766384    
    0.3379072631821311         1.172500863574092    
    0.3435390509018333         1.177296921123159    
    0.3491708386215355         1.182084452233892    
    0.3548026263412377         1.186859927833784    
    0.3604344140609398         1.191619821355401    
    0.3660662017806420         1.196360611132655    
    0.3716979895003442         1.201078782793459    
    0.3773297772200464         1.205770831646737    
    0.3829615649397486         1.210433265061782    
    0.3885933526594508         1.215062604837899    
    0.3942251403791530         1.219655389562299    
    0.3998569280988551         1.224208176954199    
    0.4054887158185573         1.228717546193061    
    0.4111205035382595         1.233180100228914    
    0.4167522912579617         1.237592468072760    
    0.4223840789776639         1.241951307064935    
    0.4280158666973661         1.246253305119488    
    0.4336476544170683         1.250495182942488    
    0.4392794421367704         1.254673696222295    
    0.4449112298564726         1.258785637789788    
    0.4505430175761748         1.262827839746600    
    0.4561748052958770         1.266797175559410    
    0.4618065930155792         1.270690562118388    
    0.4674383807352814         1.274504961757894    
    0.4730701684549836         1.278237384237608    
    0.4787019561746857         1.281884888682242    
    0.4843337438943879         1.285444585478100    
    0.4899655316140901         1.288913638124714    
    0.4955973193337923         1.292289265039892    
    0.5012291070534944         1.295568741316531    
    0.5068608947731966         1.298749400429599    
    0.5124926824928988         1.301828635891752    
    0.5181244702126010         1.304803902856104    
    0.5237562579323032         1.307672719664718    
    0.5293880456520054         1.310432669341450    
    0.5350198333717076         1.313081401027865    
    0.5406516210914097         1.315616631360951    
    0.5462834088111119         1.318036145791486    
    0.5519151965308141         1.320337799841941    
    0.5575469842505163         1.322519520302897    
    0.5631787719702185         1.324579306366999    
    0.5688105596899207         1.326515230699570    
    0.5744423474096229         1.328325440445073    
    0.5800741351293250         1.330008158168689    
    0.5857059228490272         1.331561682732333    
    0.5913377105687294         1.332984390104562    
    0.5969694982884316         1.334274734103858    
    0.6026012860081338         1.335431247074853    
    0.6082330737278360         1.336452540497197    
    0.6138648614475382         1.337337305526777    
    0.6194966491672403         1.338084313469154    
    0.6251284368869425         1.338692416185073    
    0.6307602246066447         1.339160546428094    
    0.6363920123263469         1.339487718114392    
    0.6420238000460491         1.339673026524875    
    0.6476555877657513         1.339715648439881    
    0.6532873754854535         1.339614842206740    
    0.6589191632051556         1.339369947740650    
    0.6645509509248578         1.338980386459282    
    0.6701827386445600         1.338445661151727    
    0.6758145263642622         1.337765355782388    
    0.6814463140839644         1.336939135230528    
    0.6870781018036666         1.335966744966269    
    0.6927098895233688         1.334848010663891    
    0.6983416772430709         1.333582837753359    
    0.7039734649627731         1.332171210911068    
    0.7096052526824753         1.330613193490884    
    0.7152370404021775         1.328908926896592    
    0.7208688281218797         1.327058629896954    
    0.7265006158415819         1.325062597884616    
    0.7321324035612841         1.322921202080188    
    0.7377641912809862         1.320634888682845    
    0.7433959790006884         1.318204177968873    
    0.7490277667203906         1.315629663339635    
    0.7546595544400928         1.312912010320446    
    0.7602913421597950         1.310051955511946    
    0.7659231298794972         1.307050305495548    
    0.7715549175991994         1.303907935694601    
    0.7771867053189015         1.300625789192955    
    0.7828184930386037         1.297204875512621    
    0.7884502807583059         1.293646269352259    
    0.7940820684780081         1.289951109288259    
    0.7997138561977103         1.286120596440206    
    0.8053456439174125         1.282155993102510    
    0.8109774316371147         1.278058621344047    
    0.8166092193568169         1.273829861577622    
    0.8222410070765190         1.269471150999894    
    0.8278727947962212         1.264983988837619    
    0.8335045825159234         1.260369915518244    
    0.8391363702356256         1.255630529627714    
    0.8447681579553278         1.250767480914631    
    0.8503999456750300         1.245782468358235    
    0.8560317333947322         1.240677238578449    
    0.8616635211144343         1.235453584230527    
    0.8672953088341365         1.230113342386092    
    0.8729270965538387         1.224658392902400    
    0.8785588842735409         1.219090656781567    
    0.8841906719932431         1.213412094521540    
    0.8898224597129453         1.207624704460534    
    0.8954542474326475         1.201730521116634    
    0.9010860351523496         1.195731613524246    
    0.9067178228720518         1.189630083569025    
    0.9123496105917540         1.183428064322908    
    0.9179813983114562         1.177127718380806    
    0.9236131860311584         1.170731236200504    
    0.9292449737508606         1.164240834447258    
    0.9348767614705628         1.157658754344549    
    0.9405085491902649         1.150987260032400    
    0.9461403369099671         1.144228636934636    
    0.9517721246296693         1.137385190136398    
    0.9574039123493715         1.130459242773195    
    0.9630357000690737         1.123453134432724    
    0.9686674877887759         1.116369219570640    
    0.9742992755084781         1.109209865941402    
    0.9799310632281802         1.101977453045288    
    0.9855628509478824         1.094674370592599    
    0.9911946386675846         1.087303016986048    
    0.9968264263872868         1.079865797822249    
     1.002458214106989         1.072365124413203    
     1.008090001826691         1.064803412328595    
     1.013721789546393         1.057183079959680    
     1.019353577266096         1.049506547105507    
     1.024985364985798         1.041776233582121    
     1.030617152705500         1.033994557855403    
     1.036248940425202         1.026163935698103    
     1.041880728144904         1.018286778871606    
     1.047512515864606         1.010365493832906    
     1.053144303584309         1.002402480467222    
     1.058776091304011        0.9944001308466422    
     1.064407879023713        0.9863608280151354    
     1.070039666743415        0.9782869448002347    
     1.075671454463117        0.9701808426516357    
     1.081303242182819        0.9620448705069354    
     1.086935029902522        0.9538813636846696    
     1.092566817622224        0.9456926428047921    
     1.098198605341926        0.9374810127366898    
     1.103830393061628        0.9292487615747863    
     1.109462180781331        0.9209981596417678    
     1.115093968501033        0.9127314585194214    
     1.120725756220735        0.9044508901070341    
     1.126357543940437        0.8961586657073086    
     1.131989331660139        0.8878569751396671    
     1.137621119379841        0.8795479858808517    
     1.143252907099544        0.8712338422326469    
     1.148884694819246        0.8629166645165678    
     1.154516482538948        0.8545985482953151    
     1.160148270258650        0.8462815636207925    
     1.165780057978352        0.8379677543084394    
     1.171411845698054        0.8296591372376585    
     1.177043633417757        0.8213577016780473    
     1.182675421137459        0.8130654086411905    
     1.188307208857161        0.8047841902576954    
     1.193938996576863        0.7965159491792019    
     1.199570784296565        0.7882625580050515    
     1.205202572016268        0.7800258587333034    
     1.210834359735970        0.7718076622357826    
     1.216466147455672        0.7636097477568421    
     1.222097935175374        0.7554338624355132    
     1.227729722895076        0.7472817208507259    
     1.233361510614779        0.7391550045892555    
     1.238993298334481        0.7310553618360974    
     1.244625086054183        0.7229844069869277    
     1.250256873773885        0.7149437202823354    
     1.255888661493587        0.7069348474635084    
     1.261520449213289        0.6989592994490730    
     1.267152236932992        0.6910185520327643    
     1.272784024652694        0.6831140456016331    
     1.278415812372396        0.6752471848745100    
     1.284047600092098        0.6674193386604194    
     1.289679387811800        0.6596318396366743    
     1.295311175531503        0.6518859841463968    
     1.300942963251205        0.6441830320151750    
     1.306574750970907        0.6365242063866291    
     1.312206538690609        0.6289106935766318    
     1.317838326410311        0.6213436429459511    
     1.323470114130014        0.6138241667910938    
     1.329101901849716        0.6063533402531344    
     1.334733689569418        0.5989322012443160    
     1.340365477289120        0.5915617503922470    
     1.345997265008822        0.5842429510014739    
     1.351629052728524        0.5769767290322882    
     1.357260840448227        0.5697639730965678    
     1.362892628167929        0.5626055344705025    
     1.368524415887631        0.5555022271240572    
     1.374156203607333        0.5484548277670002    
     1.379787991327035        0.5414640759113901    
     1.385419779046738        0.5345306739503551    
     1.391051566766440        0.5276552872530575    
     1.396683354486142        0.5208385442757004    
     1.402315142205844        0.5140810366884865    
     1.407946929925546        0.5073833195183689    
     1.413578717645249        0.5007459113075308    
     1.419210505364951        0.4941692942874383    
     1.424842293084653        0.4876539145683940    
     1.430474080804355        0.4812001823444505    
     1.436105868524057        0.4748084721136096    
     1.441737656243759        0.4684791229131585    
     1.447369443963461        0.4622124385700768    
     1.453001231683164        0.4560086879663590    
     1.458633019402866        0.4498681053191729    
     1.464264807122568        0.4437908904757096    
     1.469896594842270        0.4377772092226157    
     1.475528382561972        0.4318271936098773    
     1.481160170281675        0.4259409422890126    
     1.486791958001377        0.4201185208654509    
     1.492423745721079        0.4143599622649304    
     1.498055533440781        0.4086652671137749    
     1.503687321160483        0.4030344041328835    
     1.509319108880186        0.3974673105452523    
     1.514950896599888        0.3919638924968692    
     1.520582684319590        0.3865240254907589    
     1.526214472039292        0.3811475548340195    
     1.531846259758994        0.3758342960976016    
     1.537478047478696        0.3705840355886310    
     1.543109835198399        0.3653965308350455    
     1.548741622918101        0.3602715110822891    
     1.554373410637803        0.3552086777990652    
     1.560005198357505        0.3502077051003257    
     1.565636986077207        0.3452682400285956    
     1.571268773796910        0.3403899033755191    
     1.576900561516612        0.3355722910259035    
     1.582532349236314        0.3308149743596205    
     1.588164136956016        0.3261174995176034    
     1.593795924675718        0.3214793872816157    
     1.599427712395421        0.3169001333885864    
     1.605059500115123        0.3123792113533946    
     1.610691287834825        0.3079160765075394    
     1.616323075554527        0.3035101702343542    
     1.621954863274229        0.2991609244293533    
     1.627586650993931        0.2948677658132214    
     1.633218438713634        0.2906301197352260    
     1.638850226433336        0.2864474133305741    
     1.644482014153038        0.2823190758725498    
     1.650113801872740        0.2782445383960654    
     1.655745589592442        0.2742232327629336    
     1.661377377312145        0.2702545913317156    
     1.667009165031847        0.2663380475356800    
     1.672640952751549        0.2624730362079056    
     1.678272740471251        0.2586589939942291    
     1.683904528190953        0.2548953594476572    
     1.689536315910656        0.2511815731470335    
     1.695168103630358        0.2475170778513861    
     1.700799891350060        0.2439013186473357    
     1.706431679069762        0.2403337430906982    
     1.712063466789464        0.2368138013400849    
     1.717695254509166        0.2333409462834719    
     1.723327042228869        0.2299146336580483    
     1.728958829948571        0.2265343221635840    
     1.734590617668273        0.2231994735695398    
     1.740222405387975        0.2199095528161458    
     1.745854193107677        0.2166640281096610    
     1.751485980827379        0.2134623710120286    
     1.757117768547082        0.2103040565251212    
     1.762749556266784        0.2071885631697782    
     1.768381343986486        0.2041153730598221    
     1.774013131706188        0.2010839719712386    
     1.779644919425891        0.1980938494066986    
     1.785276707145593        0.1951444986555964    
     1.790908494865295        0.1922354168497666    
     1.796540282584997        0.1893661050150477    
     1.802172070304699        0.1865360681188442    
     1.807803858024401        0.1837448151138416    
     1.813435645744104        0.1809918589780192    
     1.819067433463806        0.1782767167511073    
     1.824699221183508        0.1755989095676188    
     1.830331008903210        0.1729579626865992    
     1.835962796622912        0.1703534055182108    
     1.841594584342614        0.1677847716472874    
     1.847226372062317        0.1652515988539749    
     1.852858159782019        0.1627534291315756    
     1.858489947501721        0.1602898087017066    
     1.864121735221423        0.1578602880268875    
     1.869753522941126        0.1554644218206563    
     1.875385310660828        0.1531017690553228    
     1.881017098380530        0.1507718929674487    
     1.886648886100232        0.1484743610611620    
     1.892280673819934        0.1462087451093873    
     1.897912461539636        0.1439746211530885    
     1.903544249259339        0.1417715694986051    
     1.909176036979041        0.1395991747131698    
     1.914807824698743        0.1374570256186873    
     1.920439612418445        0.1353447152838445    
     1.926071400138147        0.1332618410146419    
     1.931703187857849        0.1312080043434062    
     1.937334975577552        0.1291828110163577    
     1.942966763297254        0.1271858709798049    
     1.948598551016956        0.1252167983650246    
     1.954230338736658        0.1232752114718967    
     1.959862126456360        0.1213607327513496    
     1.965493914176063        0.1194729887866788    
     1.971125701895765        0.1176116102737944    
     1.976757489615467        0.1157762320004521    
     1.982389277335169        0.1139664928245177    
     1.988021065054871        0.1121820356513214    
     1.993652852774574        0.1104225074101489    
     1.999284640494276        0.1086875590299127    
     2.004916428213978        0.1069768454140561    
     2.010548215933680        0.1052900254147280    
     2.016180003653382        0.1036267618062756    
     2.021811791373084        0.1019867212580912    
     2.027443579092786        0.1003695743068562    
     2.033075366812489        0.9877499532821865E-01
     2.038707154532191        0.9720266250794182E-01
     2.044338942251893        0.9565225781255610E-01
     2.049970729971595        0.9412346695955237E-01
     2.055602517691298        0.9261597938714515E-01
     2.061234305411000        0.9112948822364061E-01
     2.066866093130702        0.8966369025643552E-01
     2.072497880850404        0.8821828590068063E-01
     2.078129668570107        0.8679297916763132E-01
     2.083761456289809        0.8538747763271769E-01
     2.089393244009511        0.8400149240335480E-01
     2.095025031729213        0.8263473808651951E-01
     2.100656819448915        0.8128693275612017E-01
     2.106288607168617        0.7995779792017869E-01
     2.111920394888319        0.7864705848784570E-01
     2.117552182608021        0.7735444273627509E-01
     2.123183970327724        0.7607968227737243E-01
     2.128815758047426        0.7482251202443999E-01
     2.134447545767128        0.7358267015873438E-01
     2.140079333486830        0.7235989809595698E-01
     2.145711121206533        0.7115394045269119E-01
     2.151342908926235        0.6996454501280601E-01
     2.156974696645937        0.6879146269383793E-01
     2.162606484365639        0.6763444751336821E-01
     2.168238272085341        0.6649325655540923E-01
     2.173870059805044        0.6536764993681275E-01
     2.179501847524746        0.6425739077371453E-01
     2.185133635244448        0.6316224514802440E-01
     2.190765422964150        0.6208198207397777E-01
     2.196397210683852        0.6101637346475627E-01
     2.202028998403554        0.5996519409918987E-01
     2.207660786123256        0.5892822158854978E-01
     2.213292573842959        0.5790523634344308E-01
     2.218924361562661        0.5689602154081575E-01
     2.224556149282363        0.5590036309107601E-01
     2.230187937002065        0.5491804960534296E-01
     2.235819724721767        0.5394887236283036E-01
     2.241451512441470        0.5299262527837356E-01
     2.247083300161172        0.5204910487010290E-01
     2.252715087880874        0.5111811022727480E-01
     2.258346875600576        0.5019944297826436E-01
     2.263978663320279        0.4929290725872384E-01
     2.269610451039981        0.4839830967991643E-01
     2.275242238759683        0.4751545929722733E-01
     2.280874026479385        0.4664416757885750E-01
     2.286505814199087        0.4578424837470571E-01
     2.292137601918789        0.4493551788544275E-01
     2.297769389638491        0.4409779463178051E-01
     2.303401177358193        0.4327089942394137E-01
     2.309032965077896        0.4245465533132978E-01
     2.314664752797598        0.4164888765241165E-01
     2.320296540517300        0.4085342388479947E-01
     2.325928328237002        0.4006809369555183E-01
     2.331560115956705        0.3929272889168697E-01
     2.337191903676407        0.3852716339090968E-01
     2.342823691396109        0.3777123319255973E-01
     2.348455479115811        0.3702477634877824E-01
     2.354087266835514        0.3628763293589637E-01
     2.359719054555216        0.3555964502604710E-01
     2.365350842274918        0.3484065665900014E-01
     2.370982629994620        0.3413051381422393E-01
     2.376614417714322        0.3342906438317145E-01
     2.382246205434024        0.3273615814179477E-01
     2.387877993153726        0.3205164672328631E-01
     2.393509780873428        0.3137538359104696E-01
     2.399141568593131        0.3070722401188377E-01
     2.404773356312833        0.3004702502943475E-01
     2.410405144032535        0.2939464543782208E-01
     2.416036931752237        0.2874994575553347E-01
     2.421668719471940        0.2811278819953049E-01
     2.427300507191642        0.2748303665958675E-01
     2.432932294911344        0.2686055667284904E-01
     2.438564082631046        0.2624521539862885E-01
     2.444195870350748        0.2563688159341695E-01
     2.449827658070451        0.2503542558612409E-01
     2.455459445790153        0.2444071925354486E-01
     2.461091233509855        0.2385263599604565E-01
     2.466723021229557        0.2327105071347369E-01
     2.472354808949259        0.2269583978128731E-01
     2.477986596668961        0.2212688102690684E-01
     2.483618384388663        0.2156405370628189E-01
     2.489250172108366        0.2100723848067797E-01
     2.494881959828068        0.2045631739367721E-01
     2.500513747547770        0.1991117384839400E-01
     2.506145535267472        0.1937169258490302E-01
     2.511777322987175        0.1883775965787824E-01
     2.517409110706877        0.1830926241444254E-01
     2.523040898426579        0.1778608947222304E-01
     2.528672686146281        0.1726813069761410E-01
     2.534304473865983        0.1675527718424371E-01
     2.539936261585686        0.1624742123164275E-01
     2.545568049305388        0.1574445632411410E-01
     2.551199837025090        0.1524627711141253E-01
     2.556831624744792        0.1475277948014558E-01
     2.562463412464494        0.1426386165738653E-01
     2.568095200184196        0.1377942914789345E-01
     2.573726987903898        0.1329940559872039E-01
     2.579358775623601        0.1282374756164000E-01
     2.584990563343303        0.1235245867110192E-01
     2.590622351063005        0.1188559970678143E-01
     2.596254138782707        0.1142329319875180E-01
     2.601885926502410        0.1096572291838757E-01
     2.607517714222112        0.1051312940351076E-01
     2.613149501941814        0.1006580283599594E-01
     2.618781289661516        0.9624074437325662E-02
     2.624413077381218        0.9188307284379287E-02
     2.630044865100921        0.8758887183416234E-02
     2.635676652820623        0.8336214018624234E-02
     2.641308440540325        0.7920693822665822E-02
     2.646940228260027        0.7512731695618944E-02
     2.652572015979729        0.7112725616159127E-02
     2.658203803699431        0.6721061135110735E-02
     2.663835591419133        0.6338106908426645E-02
     2.669467379138836        0.5964211007869848E-02
     2.675099166858538        0.5599697938477565E-02
     2.680730954578240        0.5244866288901452E-02
     2.686362742297942        0.4899986941620176E-02
     2.691994530017645        0.4565301773165859E-02
     2.697626317737347        0.4241022778820255E-02
     2.703258105457049        0.3927331560953708E-02
     2.708889893176751        0.3624379124793672E-02
     2.714521680896453        0.3332285929522088E-02
     2.720153468616155        0.3051142145882488E-02
     2.725785256335858        0.2781008073562593E-02
     2.731417044055560        0.2521914672038969E-02
     2.737048831775262        0.2273864156582535E-02
     2.742680619494964        0.2036830605525302E-02
     2.748312407214666        0.1810760513550002E-02
     2.753944194934368        0.1595573204838823E-02
     2.759575982654071        0.1391160982107152E-02
     2.765207770373773        0.1197388818347606E-02
     2.770839558093475        0.1014093267035846E-02
     2.776471345813177        0.8410800049418484E-03
     2.782103133532880        0.6781188613683574E-03
     2.787734921252582        0.5249338701321854E-03
     2.793366708972284        0.3811823678898720E-03
     2.798998496691986        0.2464059667025512E-03
     2.804630284411688        0.1198889424807640E-03
     2.810262072131390         0.000000000000000    
  0  6  1  0  2.000000   #orbital l, n, z, is_polarized, population
 500    0.1352443874136734E-01     6.748694931942305     # npts, delta, cutoff
     0.000000000000000        0.6518818674782569    
    0.1352443874136734E-01    0.6519957451093726    