<preamble>

<basis_specs>
===============================================================================
Rn                   Z=  86    Mass=  222.02        Charge= 0.17977+309
Lmxo=2 Lmxkb= 2    BasisType=split      Semic=T
L=0  Nsemic=0  Cnfigmx=6
          i=1  nzeta=2  polorb=0  (6s)
            splnorm:   0.15000    
               vcte:    40.000    
               rinn:    4.2179    
               qcoe:    0.0000    
               qyuk:    0.0000    
               qwid:   0.10000E-01
                rcs:    4.6866      3.2211    
            lambdas:    1.0000      1.0000    
L=1  Nsemic=0  Cnfigmx=6
          i=1  nzeta=2  polorb=0  (6p)  (to be polarized non-perturbatively)
            splnorm:   0.15000    
               vcte:    40.000    
               rinn:    5.6118    
               qcoe:    0.0000    
               qyuk:    0.0000    
               qwid:   0.10000E-01
                rcs:    6.2291      4.3734    
            lambdas:    1.0000      1.0000    
L=2  Nsemic=1  Cnfigmx=6
          i=1  nzeta=1  polorb=0  (5d)  (semicore shell)
            splnorm:   0.15000    
               vcte:    40.000    
               rinn:    2.8102    
               qcoe:    0.0000    
               qyuk:    0.0000    
               qwid:   0.10000E-01
                rcs:    3.1194    
            lambdas:    1.0000    
          i=2  nzeta=1  polorb=0  (6d)  (non-perturbative polarization shell)
            splnorm:   0.15000    
               vcte:    40.000    
               rinn:    5.6118    
               qcoe:    0.0000    
               qyuk:    0.0000    
               qwid:   0.10000E-01
                rcs:    6.2291    
            lambdas:    1.0000    
-------------------------------------------------------------------------------
L=0  Nkbl=1  erefs: 0.17977+309
L=1  Nkbl=1  erefs: 0.17977+309
L=2  Nkbl=2  erefs: 0.17977+309 0.17977+309
===============================================================================
</basis_specs>

<pseudopotential_header>
 Rn pw nrl pcec
 ONCVPSP-3.2018-03-09Hamann's oncvpsp                        
 6s 2.00  r= 2.21/6p 6.00  r= 2.01/5d10.00  r= 1.80/                    5d:6s:6p:
</pseudopotential_header>
</preamble>
Rn                            # Symbol
Rn                            # Label
   86                         # Atomic number
     18.0000000000                             # Valence charge
     222.020000000        # Mass 
     288.009904889        # Self energy 
   2   6                      # Lmax for basis, no. of nl orbitals 
   2   6                      # Lmax for projectors, no. of nl KB projectors
# PAOs:__________________________
  0  6  1  0  2.000000   #orbital l, n, z, is_polarized, population
 500    0.9391898990301090E-02     4.686557596160244     # npts, delta, cutoff
     0.000000000000000        0.2149675766681207    
    0.9391898990301090E-02    0.2150190980599560    
    0.1878379798060218E-01    0.2151929104861644    
    0.2817569697090327E-01    0.2154823781148144    
    0.3756759596120436E-01    0.2158871632584992    
    0.4695949495150545E-01    0.2164067962409043    
    0.5635139394180654E-01    0.2170406752745945    
    0.6574329293210764E-01    0.2177880676069192    
    0.7513519192240872E-01    0.2186481110718784    
    0.8452709091270981E-01    0.2196198159480143    
    0.9391898990301090E-01    0.2207020670979069    
    0.1033108888933120        0.2218936263779462    
    0.1127027878836131        0.2231931353097614    
    0.1220946868739142        0.2245991180050239    
    0.1314865858642153        0.2261099843350019    
    0.1408784848545163        0.2277240333357149    
    0.1502703838448174        0.2294394568389427    
    0.1596622828351185        0.2312543433187427    
    0.1690541818254196        0.2331666819425542    
    0.1784460808157207        0.2351743668154072    
    0.1878379798060218        0.2372752014052332    
    0.1972298787963229        0.2394669031367859    
    0.2066217777866240        0.2417471081412332    
    0.2160136767769251        0.2441133761480585    
    0.2254055757672262        0.2465631955055562    
    0.2347974747575273        0.2490939883158622    
    0.2441893737478283        0.2517031156701793    
    0.2535812727381294        0.2543878829696224    
    0.2629731717284305        0.2571455453168975    
    0.2723650707187316        0.2599733129638868    
    0.2817569697090327        0.2628683568001030    
    0.2911488686993338        0.2658278138669123    
    0.3005407676896349        0.2688487928824123    
    0.3099326666799360        0.2719283797618812    
    0.3193245656702371        0.2750636431187973    
    0.3287164646605382        0.2782516397315350    
    0.3381083636508392        0.2814894199610298    
    0.3475002626411404        0.2847740331049005    
    0.3568921616314414        0.2881025326737813    
    0.3662840606217425        0.2914719815759093    
    0.3756759596120436        0.2948794571963566    
    0.3850678586023447        0.2983220563576737    
    0.3944597575926458        0.3017969001491291    
    0.4038516565829469        0.3053011386121985    
    0.4132435555732480        0.3088319552704306    
    0.4226354545635491        0.3123865714923713    
    0.4320273535538501        0.3159622506767695    
    0.4414192525441513        0.3195563022498928    
    0.4508111515344523        0.3231660854654006    
    0.4602030505247534        0.3267890129978752    
    0.4695949495150545        0.3304225543217858    
    0.4789868485053556        0.3340642388683594    
    0.4883787474956567        0.3377116589535518    
    0.4977706464859578        0.3413624724710571    
    0.5071625454762588        0.3450144053450384    
    0.5165544444665600        0.3486652537380424    
    0.5259463434568611        0.3523128860103315    
    0.5353382424471621        0.3559552444276603    
    0.5447301414374632        0.3595903466153248    
    0.5541220404277644        0.3632162867570958    
    0.5635139394180654        0.3668312365384726    
    0.5729058384083665        0.3704334458344652    
    0.5822977373986676        0.3740212431429341    
    0.5916896363889687        0.3775930357652926    
    0.6010815353792698        0.3811473097371565    
    0.6104734343695709        0.3846826295123075    
    0.6198653333598719        0.3881976374040805    
    0.6292572323501731        0.3916910527890322    
    0.6386491313404742        0.3951616710784717    
    0.6480410303307752        0.3986083624641230    
    0.6574329293210763        0.4020300704448982    
    0.6668248283113775        0.4054258101423688    
    0.6762167273016785        0.4087946664131970    
    0.6856086262919796        0.4121357917673602    
    0.6950005252822807        0.4154484041015701    
    0.7043924242725818        0.4187317842578419    
    0.7137843232628829        0.4219852734176521    
    0.7231762222531840        0.4252082703426014    
    0.7325681212434850        0.4284002284729279    
    0.7419600202337862        0.4315606528956026    
    0.7513519192240872        0.4346890971940994    
    0.7607438182143883        0.4377851601922371    
    0.7701357172046894        0.4408484826047719    
    0.7795276161949904        0.4438787436076379    
    0.7889195151852916        0.4468756573409261    
    0.7983114141755927        0.4498389693578405    
    0.8077033131658937        0.4527684530329573    
    0.8170952121561949        0.4556639059431899    
    0.8264871111464960        0.4585251462348618    
    0.8358790101367970        0.4613520089902610    
    0.8452709091270981        0.4641443426069816    
    0.8546628081173993        0.4669020052032468    
    0.8640547071077003        0.4696248610622341    
    0.8734466060980014        0.4723127771282362    
    0.8828385050883025        0.4749656195672481    
    0.8922304040786035        0.4775832504042881    
    0.9016223030689047        0.4801655242494335    
    0.9110142020592058        0.4827122851242136    
    0.9204061010495068        0.4852233633995736    
    0.9297980000398079        0.4876985728562389    
    0.9391898990301091        0.4901377078777921    
    0.9485817980204101        0.4925405407863295    
    0.9579736970107112        0.4949068193299981    
    0.9673655960010124        0.4972362643311832    
    0.9767574949913134        0.4995285675035104    
    0.9861493939816145        0.5017833894452569    
    0.9955412929719156        0.5040003578160811    
     1.004933191962217        0.5061790657033887    
     1.014325090952518        0.5083190701839346    
     1.023716989942819        0.5104198910856005    
     1.033108888933120        0.5124810099535784    
     1.042500787923421        0.5145018692244863    
     1.051892686913722        0.5164818716112061    
     1.061284585904023        0.5184203797005226    
     1.070676484894324        0.5203167157648905    
     1.080068383884625        0.5221701617889402    
     1.089460282874926        0.5239799597105774    
     1.098852181865227        0.5257453118758210    
     1.108244080855529        0.5274653817057670    
     1.117635979845830        0.5291392945733758    
     1.127027878836131        0.5307661388870423    
     1.136419777826432        0.5323449673772249    
     1.145811676816733        0.5338747985817169    
     1.155203575807034        0.5353546185244746    
     1.164595474797335        0.5367833825822620    
     1.173987373787636        0.5381600175327494    
     1.183379272777937        0.5394834237770900    
     1.192771171768239        0.5407524777294062    
     1.202163070758540        0.5419660343650758    
     1.211554969748841        0.5431229299191610    
     1.220946868739142        0.5442219847258379    
     1.230338767729443        0.5452620061891995    
     1.239730666719744        0.5462417918753779    
     1.249122565710045        0.5471601327155292    
     1.258514464700346        0.5480158163088454    
     1.267906363690647        0.5488076303144367    
     1.277298262680948        0.5495343659206301    
     1.286690161671249        0.5501948213799657    
     1.296082060661550        0.5507878055979647    
     1.305473959651852        0.5513121417635546    
     1.314865858642153        0.5517666710089123    
     1.324257757632454        0.5521502560863569    
     1.333649656622755        0.5524617850499096    
     1.343041555613056        0.5527001749290789    
     1.352433454603357        0.5528643753824737    
     1.361825353593658        0.5529533723189067    
     1.371217252583959        0.5529661914737513    
     1.380609151574260        0.5529019019284483    
     1.390001050564561        0.5527596195612621    
     1.399392949554862        0.5525385104175781    
     1.408784848545164        0.5522377939883223    
     1.418176747535465        0.5518567463853378    
     1.427568646525766        0.5513947034029231    
     1.436960545516067        0.5508510634550711    
     1.446352444506368        0.5502252903783628    
     1.455744343496669        0.5495169160908828    
     1.465136242486970        0.5487255430980070    
     1.474528141477271        0.5478508468363683    
     1.483920040467572        0.5468925778478565    
     1.493311939457873        0.5458505637760227    
     1.502703838448174        0.5447247111778366    
     1.512095737438476        0.5435150071443285    
     1.521487636428777        0.5422215207242582    
     1.530879535419078        0.5408444041455680    
     1.540271434409379        0.5393838938300309    
     1.549663333399680        0.5378403111971435    
     1.559055232389981        0.5362140632882718    
     1.568447131380282        0.5345056431260105    
     1.577839030370583        0.5327156290273817    
     1.587230929360884        0.5308446832411443    
     1.596622828351185        0.5288935549263896    
     1.606014727341486        0.5268630787170440    
     1.615406626331787        0.5247541738785708    
     1.624798525322089        0.5225678433610454    
     1.634190424312390        0.5203051726367152    
     1.643582323302691        0.5179673283249203    
     1.652974222292992        0.5155555566079115    
     1.662366121283293        0.5130711814417416    
     1.671758020273594        0.5105156025670419    
     1.681149919263895        0.5078902933251151    
     1.690541818254196        0.5051967982853572    
     1.699933717244497        0.5024367306906132    
     1.709325616234799        0.4996117697276215    
     1.718717515225100        0.4967236576302201    
     1.728109414215401        0.4937741966235134    
     1.737501313205702        0.4907652457176545    
     1.746893212196003        0.4876987173603693    
     1.756285111186304        0.4845765739577459    
     1.765677010176605        0.4814008242732244    
     1.775068909166906        0.4781735197150606    
     1.784460808157207        0.4748967505228720    
     1.793852707147508        0.4715726418641599    
     1.803244606137809        0.4682033498519606    
     1.812636505128110        0.4647910574949881    
     1.822028404118412        0.4613379705918130    
     1.831420303108713        0.4578463135808010    
     1.840812202099014        0.4543183253575751    
     1.850204101089315        0.4507562550718960    
     1.859596000079616        0.4471623579158950    
     1.868987899069917        0.4435388909155624    
     1.878379798060218        0.4398881087373409    
     1.887771697050519        0.4362122595216399    
     1.897163596040820        0.4325135807549431    
     1.906555495031121        0.4287942951920459    
     1.915947394021422        0.4250566068397594    
     1.925339293011723        0.4213026970132130    
     1.934731192002025        0.4175347204756270    
     1.944123090992326        0.4137548016721234    
     1.953514989982627        0.4099650310678691    
     1.962906888972928        0.4061674616004285    
     1.972298787963229        0.4023641052558921    
     1.981690686953530        0.3985569297778867    
     1.991082585943831        0.3947478555181542    
     2.000474484934132        0.3909387524369614    
     2.009866383924433        0.3871314372610393    
     2.019258282914735        0.3833276708063219    
     2.028650181905035        0.3795291554721905    
     2.038042080895337        0.3757375329133681    
     2.047433979885638        0.3719543818950956    
     2.056825878875939        0.3681812163365660    
     2.066217777866240        0.3644194835470970    
     2.075609676856541        0.3606705626588567    
     2.085001575846842        0.3569357632593233    
     2.094393474837143        0.3532163242261279    
     2.103785373827444        0.3495134127662258    
     2.113177272817745        0.3458281236607339    
     2.122569171808046        0.3421614787161608    
     2.131961070798348        0.3385144264213433    
     2.141352969788648        0.3348878416909257    
     2.150744868778950        0.3312825259405766    
     2.160136767769251        0.3276992078986525    
     2.169528666759552        0.3241385447665539    
     2.178920565749853        0.3206011215336549    
     2.188312464740154        0.3170874492672962    
     2.197704363730455        0.3135979655958542    
     2.207096262720756        0.3101330416615294    
     2.216488161711057        0.3066929928138845    
     2.225880060701358        0.3032780902072930    
     2.235271959691659        0.2998885722753239    
     2.244663858681961        0.2965246550032846    
     2.254055757672262        0.2931865389189743    
     2.263447656662563        0.2898744095031002    
     2.272839555652864        0.2865884355213905    
     2.282231454643165        0.2833287676999807    
     2.291623353633466        0.2800955399982971    
     2.301015252623767        0.2768888707280670    
     2.310407151614068        0.2737088634142174    
     2.319799050604369        0.2705556071697108    
     2.329190949594671        0.2674291772323752    
     2.338582848584971        0.2643296355017486    
     2.347974747575273        0.2612570310613507    
     2.357366646565574        0.2582114006839248    
     2.366758545555875        0.2551927693209390    
     2.376150444546176        0.2522011505768276    
     2.385542343536477        0.2492365471683839    
     2.394934242526778        0.2462989513697150    
     2.404326141517079        0.2433883454431424    
     2.413718040507380        0.2405047020564554    
     2.423109939497681        0.2376479846868731    
     2.432501838487982        0.2348181480121048    
     2.441893737478284        0.2320151382888522    
     2.451285636468584        0.2292388937191230    
     2.460677535458886        0.2264893448046779    
     2.470069434449187        0.2237664146899702    
     2.479461333439488        0.2210700194938850    
     2.488853232429789        0.2184000686306061    
     2.498245131420090        0.2157564651199267    
     2.507637030410391        0.2131391058872920    
     2.517028929400692        0.2105478820538852    
     2.526420828390993        0.2079826792170366    
     2.535812727381294        0.2054433777212364    
     2.545204626371596        0.2029298529200309    
     2.554596525361897        0.2004419754290597    
     2.563988424352198        0.1979796113705049    
     2.573380323342499        0.1955426226091921    
     2.582772222332800        0.1931308669806021    
     2.592164121323101        0.1907441985110258    
     2.601556020313402        0.1883824676300945    
     2.610947919303703        0.1860455213759209    
     2.620339818294004        0.1837332035930642    
     2.629731717284305        0.1814453551235368    
     2.639123616274607        0.1791818139910642    
     2.648515515264907        0.1769424155788027    
     2.657907414255209        0.1747269928007042    
     2.667299313245510        0.1725353762667350    
     2.676691212235811        0.1703673944421261    
     2.686083111226112        0.1682228738008395    
     2.695475010216413        0.1661016389734300    
     2.704866909206714        0.1640035128894737    
     2.714258808197015        0.1619283169147322    
     2.723650707187316        0.1598758709832103    
     2.733042606177617        0.1578459937242759    
     2.742434505167918        0.1558385025849845    
     2.751826404158220        0.1538532139477664    
     2.761218303148520        0.1518899432436182    
     2.770610202138822        0.1499485050609416    
     2.780002101129123        0.1480287132501653    
     2.789394000119424        0.1461303810242837    
     2.798785899109725        0.1442533210554439    
     2.808177798100026        0.1423973455677044    
     2.817569697090327        0.1405622664260884    
     2.826961596080628        0.1387478952220503    
     2.836353495070929        0.1369540433554749    
     2.845745394061230        0.1351805221133101    
     2.855137293051532        0.1334271427449554    
     2.864529192041833        0.1316937165345022    
     2.873921091032134        0.1299800548699322    
     2.883312990022435        0.1282859693093724    
     2.892704889012736        0.1266112716445017    
     2.902096788003037        0.1249557739612060    
     2.911488686993338        0.1233192886975695    
     2.920880585983639        0.1217016286992929    
     2.930272484973940        0.1201026072726212    
     2.939664383964241        0.1185220382348653    
     2.949056282954543        0.1169597359625999    
     2.958448181944843        0.1154155154376124    
     2.967840080935145        0.1138891922906798    
     2.977231979925446        0.1123805828432503    
     2.986623878915747        0.1108895041470927    
     2.996015777906048        0.1094157740219914    
     3.005407676896349        0.1079592110915503    
     3.014799575886650        0.1065196348171676    
     3.024191474876951        0.1050968655302524    
     3.033583373867252        0.1036907244627321    
     3.042975272857553        0.1023010337759234    
     3.052367171847854        0.1009276165878132    
     3.061759070838155        0.9957029699881155E-01
     3.071150969828456        0.9822890011602686E-01
     3.080542868818758        0.9690325207611800E-01
     3.089934767809059        0.9559318006677127E-01
     3.099326666799360        0.9429851234685474E-01
     3.108718565789661        0.9301907826529333E-01
     3.118110464779962        0.9175470827871418E-01
     3.127502363770263        0.9050523396790440E-01
     3.136894262760564        0.8927048805312608E-01
     3.146286161750865        0.8805030440832916E-01
     3.155678060741166        0.8684451807430209E-01
     3.165069959731468        0.8565296527080173E-01
     3.174461858721768        0.8447548340769931E-01
     3.183853757712070        0.8331191109517654E-01
     3.193245656702371        0.8216208815301268E-01
     3.202637555692672        0.8102585561899286E-01
     3.212029454682973        0.7990305575647194E-01
     3.221421353673274        0.7879353206112721E-01
     3.230813252663575        0.7769712926692986E-01
     3.240205151653876        0.7661369335136738E-01
     3.249597050644177        0.7554307153994207E-01
     3.258988949634478        0.7448511230997953E-01
     3.268380848624779        0.7343966539377016E-01
     3.277772747615081        0.7240658178107154E-01
     3.287164646605381        0.7138571372099776E-01
     3.296556545595683        0.7037691472332003E-01
     3.305948444585984        0.6938003955920254E-01
     3.315340343576285        0.6839494426139674E-01
     3.324732242566586        0.6742148612391609E-01
     3.334124141556887        0.6645952370121418E-01
     3.343516040547188        0.6550891680688586E-01
     3.352907939537489        0.6456952651191140E-01
     3.362299838527790        0.6364121514246504E-01
     3.371691737518091        0.6272384627730583E-01
     3.381083636508392        0.6181728474476651E-01
     3.390475535498694        0.6092139661936401E-01
     3.399867434488995        0.6003604921804290E-01
     3.409259333479296        0.5916111109607062E-01
     3.418651232469597        0.5829645204260039E-01
     3.428043131459898        0.5744194307591868E-01
     3.437435030450199        0.5659745643838725E-01
     3.446826929440500        0.5576286559110014E-01
     3.456218828430801        0.5493804520826551E-01
     3.465610727421102        0.5412287117132645E-01
     3.475002626411404        0.5331722056283458E-01
     3.484394525401704        0.5252097166008844E-01
     3.493786424392006        0.5173400392854750E-01
     3.503178323382307        0.5095619801503557E-01
     3.512570222372608        0.5018743574074298E-01
     3.521962121362909        0.4942760009403898E-01
     3.531354020353210        0.4867657522310519E-01
     3.540745919343511        0.4793424642839861E-01
     3.550137818333812        0.4720050015495623E-01
     3.559529717324113        0.4647522398454803E-01
     3.568921616314414        0.4575830662768921E-01
     3.578313515304715        0.4504963791551933E-01
     3.587705414295017        0.4434910879155680E-01
     3.597097313285317        0.4365661130333741E-01
     3.606489212275619        0.4297203859394332E-01
     3.615881111265920        0.4229528489343157E-01
     3.625273010256221        0.4162624551016794E-01
     3.634664909246522        0.4096481682207309E-01
     3.644056808236823        0.4031089626778899E-01
     3.653448707227124        0.3966438233777006E-01
     3.662840606217425        0.3902517456530620E-01
     3.672232505207726        0.3839317351748591E-01
     3.681624404198027        0.3776828078610052E-01
     3.691016303188329        0.3715039897849742E-01
     3.700408202178630        0.3653943170838864E-01
     3.709800101168931        0.3593528358661530E-01
     3.719192000159232        0.3533786021187749E-01
     3.728583899149533        0.3474706816143334E-01
     3.737975798139834        0.3416281498177024E-01
     3.747367697130135        0.3358500917925605E-01
     3.756759596120436        0.3301356021077263E-01
     3.766151495110737        0.3244837847432863E-01
     3.775543394101038        0.3188937529966108E-01
     3.784935293091340        0.3133646293883301E-01
     3.794327192081640        0.3078955455682998E-01
     3.803719091071942        0.3024856422214960E-01
     3.813110990062243        0.2971340689739509E-01
     3.822502889052544        0.2918399842987596E-01
     3.831894788042845        0.2866025554221587E-01
     3.841286687033146        0.2814209582297291E-01
     3.850678586023447        0.2762943771727244E-01
     3.860070485013748        0.2712220051745439E-01
     3.869462384004049        0.2662030435374160E-01
     3.878854282994350        0.2612367018492671E-01
     3.888246181984651        0.2563221978908234E-01
     3.897638080974953        0.2514587575429747E-01
     3.907029979965253        0.2466456146943951E-01
     3.916421878955555        0.2418820111494536E-01
     3.925813777945856        0.2371671965364321E-01
     3.935205676936157        0.2325004282160567E-01
     3.944597575926458        0.2278809711903789E-01
     3.953989474916759        0.2233080980119908E-01
     3.963381373907060        0.2187810886936209E-01
     3.972773272897361        0.2142992306181014E-01
     3.982165171887663        0.2098618184487286E-01
     3.991557070877963        0.2054681540400266E-01
     4.000948969868264        0.2011175463489213E-01
     4.010340868858566        0.1968093113463463E-01
     4.019732767848867        0.1925427719292765E-01
     4.029124666839167        0.1883172578332016E-01
     4.038516565829469        0.1841321055450651E-01
     4.047908464819770        0.1799866582166464E-01
     4.057300363810071        0.1758802655784187E-01
     4.066692262800372        0.1718122838538739E-01
     4.076084161790673        0.1677820756743365E-01
     4.085476060780974        0.1637890099942481E-01
     4.094867959771276        0.1598324620069524E-01
     4.104259858761576        0.1559118130609767E-01
     4.113651757751877        0.1520264505767981E-01
     4.123043656742179        0.1481757679641269E-01
     4.132435555732480        0.1443591645396905E-01
     4.141827454722780        0.1405760454455217E-01
     4.151219353713082        0.1368258215677619E-01
     4.160611252703383        0.1331079094559827E-01
     4.170003151693684        0.1294217312430092E-01
     4.179395050683985        0.1257667145652720E-01
     4.188786949674286        0.1221422924836746E-01
     4.198178848664587        0.1185479034049707E-01
     4.207570747654889        0.1149829910036695E-01
     4.216962646645189        0.1114470041444543E-01
     4.226354545635490        0.1079393968051234E-01
     4.235746444625792        0.1044596280000388E-01
     4.245138343616093        0.1010071617048265E-01
     4.254530242606394        0.9758146692054945E-02
     4.263922141596695        0.9418202123200461E-02
     4.273314040586996        0.9080833727682650E-02
     4.282705939577297        0.8746004490812039E-02
     4.292097838567599        0.8413703222388614E-02
     4.301489737557899        0.8083960552768780E-02
     4.310881636548200        0.7756862056274545E-02
     4.320273535538502        0.7432555775433042E-02
     4.329665434528803        0.7111253707586394E-02
     4.339057333519103        0.6793228202385240E-02
     4.348449232509405        0.6478804722608783E-02
     4.357841131499706        0.6168352394941307E-02
     4.367233030490007        0.5862273523199743E-02
     4.376624929480308        0.5560992930445995E-02
     4.386016828470609        0.5264947719596690E-02
     4.395408727460910        0.4974577821481173E-02
     4.404800626451212        0.4690317535984476E-02
     4.414192525441512        0.4412588157229715E-02
     4.423584424431813        0.4141791696759694E-02
     4.432976323422115        0.3878305669355514E-02
     4.442368222412416        0.3622478876376721E-02
     4.451760121402716        0.3374628105210537E-02
     4.461152020393018        0.3135035656103801E-02
     4.470543919383319        0.2903947606176495E-02
     4.479935818373620        0.2681572722576366E-02
     4.489327717363921        0.2468081941037298E-02
     4.498719616354222        0.2263608331514132E-02
     4.508111515344523        0.2068247478410410E-02
     4.517503414334825        0.1882058208699143E-02
     4.526895313325126        0.1705063606626670E-02
     4.536287212315426        0.1537252258387184E-02
     4.545679111305728        0.1378579673876446E-02
     4.555071010296029        0.1228969834984660E-02
     4.564462909286330        0.1088316820293956E-02
     4.573854808276631        0.9564864535138678E-03
     4.583246707266932        0.8333179157622490E-03
     4.592638606257233        0.7186252465923588E-03
     4.602030505247535        0.6121986290620480E-03
     4.611422404237835        0.5138052969351867E-03
     4.620814303228136        0.4231897883952105E-03
     4.630206202218438        0.3400730321959754E-03
     4.639598101208739        0.2641492118485501E-03
     4.648990000199039        0.1950779919615697E-03
     4.658381899189341        0.1324657132156220E-03
     4.667773798179642        0.7581531759332971E-04
     4.677165697169943        0.2434360376096076E-04
     4.686557596160244         0.000000000000000    
  0  6  2  0  0.000000   #orbital l, n, z, is_polarized, population
 500    0.6455156695858238E-02     3.221123191233261     # npts, delta, cutoff
     0.000000000000000       -0.1092514192259412    
    0.6455156695858238E-02   -0.1092067350635261    
    0.1291031339171648E-01   -0.1090329715266519    
    0.1936547008757471E-01   -0.1087434550358711    
    0.2582062678343295E-01   -0.1083383452893992    
    0.3227578347929119E-01   -0.1078178594709465    
    0.3873094017514943E-01   -0.1071822754553107    
    0.4518609687100767E-01   -0.1064319320124051    
    0.5164125356686591E-01   -0.1055672285812685    
    0.5809641026272414E-01   -0.1045886249002204    