<preamble>

<basis_specs>
===============================================================================
S                    Z=  16    Mass=  32.060        Charge= 0.17977+309
Lmxo=2 Lmxkb= 2    BasisType=split      Semic=F
L=0  Nsemic=0  Cnfigmx=3
          i=1  nzeta=2  polorb=0  (3s)
            splnorm:   0.15000    
               vcte:    40.000    
               rinn:    4.2433    
               qcoe:    0.0000    
               qyuk:    0.0000    
               qwid:   0.10000E-01
                rcs:    4.7148      3.1603    
            lambdas:    1.0000      1.0000    
L=1  Nsemic=0  Cnfigmx=3
          i=1  nzeta=2  polorb=1  (3p)  (to be polarized perturbatively)
            splnorm:   0.15000    
               vcte:    40.000    
               rinn:    5.2950    
               qcoe:    0.0000    
               qyuk:    0.0000    
               qwid:   0.10000E-01
                rcs:    5.8775      3.9921    
            lambdas:    1.0000      1.0000    
L=2  Nsemic=0  Cnfigmx=3
          i=1  nzeta=0  polorb=0  (3d)  (perturbative polarization orbital) (from 3p)
-------------------------------------------------------------------------------
L=0  Nkbl=1  erefs: 0.17977+309
L=1  Nkbl=1  erefs: 0.17977+309
L=2  Nkbl=1  erefs: 0.17977+309
===============================================================================
</basis_specs>

<pseudopotential_header>
 S  pw nrl pcec
 ONCVPSP-3.2018-03-09Hamann's oncvpsp                        
 3s 2.00  r= 1.45/3p 4.00  r= 1.45/3d 0.00  r= 1.72/                    3s:3p:
</pseudopotential_header>
</preamble>
S                             # Symbol
S                             # Label
   16                         # Atomic number
     6.00000000000                             # Valence charge
     32.0600000000        # Mass 
     40.6606121287        # Self energy 
   2   5                      # Lmax for basis, no. of nl orbitals 
   2   6                      # Lmax for projectors, no. of nl KB projectors
# PAOs:__________________________
  0  3  1  0  2.000000   #orbital l, n, z, is_polarized, population
 500    0.9448540378965791E-02     4.714821649103929     # npts, delta, cutoff
     0.000000000000000        0.7633297475428939E-01
    0.9448540378965791E-02    0.7647339636723663E-01
    0.1889708075793158E-01    0.7689678495588145E-01
    0.2834562113689737E-01    0.7760189086554280E-01
    0.3779416151586316E-01    0.7858790200928033E-01
    0.4724270189482896E-01    0.7985368474509591E-01
    0.5669124227379475E-01    0.8139778674651300E-01
    0.6613978265276053E-01    0.8321844080187014E-01
    0.7558832303172633E-01    0.8531356940824719E-01
    0.8503686341069212E-01    0.8768079010935545E-01
    0.9448540378965792E-01    0.9031742152990477E-01
    0.1039339441686237        0.9322049005544046E-01
    0.1133824845475895        0.9638673710259918E-01
    0.1228310249265553        0.9981262692117285E-01
    0.1322795653055211        0.1034943548665312    
    0.1417281056844869        0.1074278560789190    
    0.1511766460634527        0.1116088145049671    
    0.1606251864424184        0.1160326721964287    
    0.1700737268213842        0.1206946388216918    
    0.1795222672003500        0.1255897013269978    
    0.1889708075793158        0.1307126336864849    
    0.1984193479582816        0.1360580066831428    
    0.2078678883372474        0.1416201976664429    
    0.2173164287162132        0.1473934002367539    
    0.2267649690951790        0.1533716338115587    
    0.2362135094741448        0.1595487530339195    
    0.2456620498531106        0.1659184569894565    
    0.2551105902320764        0.1724742982042464    
    0.2645591306110421        0.1792096914023934    
    0.2740076709900079        0.1861179220085000    
    0.2834562113689738        0.1931921543867202    
    0.2929047517479395        0.2004254398144618    
    0.3023532921269053        0.2078107241949714    
    0.3118018325058711        0.2153408555189205    
    0.3212503728848369        0.2230085910905976    
    0.3306989132638027        0.2308066045393395    
    0.3401474536427685        0.2387274926412939    
    0.3495959940217342        0.2467637819804722    
    0.3590445344007001        0.2549079354812138    
    0.3684930747796659        0.2631523588466484    
    0.3779416151586317        0.2714894069394378    
    0.3873901555375974        0.2799113901419988    
    0.3968386959165632        0.2884105807335329    
    0.4062872362955290        0.2969792193205450    
    0.4157357766744948        0.3056095213560943    
    0.4251843170534606        0.3142936837808626    
    0.4346328574324264        0.3230238918162474    
    0.4440813978113922        0.3317923259361705    
    0.4535299381903580        0.3405911690401799    
    0.4629784785693238        0.3494126138457911    
    0.4724270189482895        0.3582488705129460    
    0.4818755593272553        0.3670921745080455    
    0.4913240997062212        0.3759347947093141    
    0.5007726400851870        0.3847690417494180    
    0.5102211804641528        0.3935872765853090    
    0.5196697208431185        0.4023819192793951    
    0.5291182612220843        0.4111454579703532    
    0.5385668016010501        0.4198704580063616    
    0.5480153419800159        0.4285495712082859    
    0.5574638823589817        0.4371755452255431    
    0.5669124227379475        0.4457412329429937    
    0.5763609631169132        0.4542396018934451    
    0.5858095034958790        0.4626637436271467    
    0.5952580438748448        0.4710068829871747    
    0.6047065842538106        0.4792623872378003    
    0.6141551246327764        0.4874237749918973    
    0.6236036650117422        0.4954847248831654    
    0.6330522053907081        0.5034390839294277    
    0.6425007457696738        0.5112808755345501    
    0.6519492861486396        0.5190043070785141    
    0.6613978265276054        0.5266037770479216    
    0.6708463669065712        0.5340738816626334    
    0.6802949072855370        0.5414094209582926    
    0.6897434476645028        0.5486054042890971    
    0.6991919880434685        0.5556570552203157    
    0.7086405284224343        0.5625598157856023    
    0.7180890688014001        0.5693093500900381    
    0.7275376091803659        0.5759015472459968    
    0.7369861495593317        0.5823325236352225    
    0.7464346899382975        0.5885986244969047    
    0.7558832303172633        0.5946964248478736    
    0.7653317706962290        0.6006227297472682    
    0.7747803110751948        0.6063745739240688    
    0.7842288514541607        0.6119492207915843    
    0.7936773918331265        0.6173441608783146    
    0.8031259322120923        0.6225571097095236    
    0.8125744725910581        0.6275860051781456    
    0.8220230129700238        0.6324290044474706    
    0.8314715533489896        0.6370844804311201    
    0.8409200937279554        0.6415510178982964    
    0.8503686341069212        0.6458274092540163    
    0.8598171744858870        0.6499126500450262    
    0.8692657148648528        0.6538059342423852    
    0.8787142552438185        0.6575066493512313    
    0.8881627956227843        0.6610143713970822    
    0.8976113360017501        0.6643288598361528    
    0.9070598763807159        0.6674500524346897    
    0.9165084167596818        0.6703780601591934    
    0.9259569571386476        0.6731131621157818    
    0.9354054975176134        0.6756558005728033    
    0.9448540378965791        0.6780065760963200    
    0.9543025782755449        0.6801662428231779    
    0.9637511186545107        0.6821357038913604    
    0.9731996590334765        0.6839160070420103    
    0.9826481994124423        0.6855083404022331    
    0.9920967397914081        0.6869140284524831    
     1.001545280170374        0.6881345273896516    
     1.010993820549340        0.6891714197812638    
     1.020442360928306        0.6900264153241954    
     1.029890901307271        0.6907013459268272    
     1.039339441686237        0.6911981622935380    
     1.048787982065203        0.6915189308056958    
     1.058236522444169        0.6916658304848446    
     1.067685062823134        0.6916411500099459    
     1.077133603202100        0.6914472847588056    
     1.086582143581066        0.6910867338427616    
     1.096030683960032        0.6905620971032571    
     1.105479224338997        0.6898760720391833    
     1.114927764717963        0.6890314506347724    
     1.124376305096929        0.6880311160593398    
     1.133824845475895        0.6868780392123337    
     1.143273385854861        0.6855752750898418    
     1.152721926233826        0.6841259589519605    
     1.162170466612792        0.6825333022741108    
     1.171619006991758        0.6808005884695146    
     1.181067547370724        0.6789311683744614    
     1.190516087749690        0.6769284554927090    
     1.199964628128656        0.6747959210002379    
     1.209413168507621        0.6725370885165513    
     1.218861708886587        0.6701555286537125    
     1.228310249265553        0.6676548533352400    
     1.237758789644519        0.6650387647114879    
     1.247207330023484        0.6623109045421750    
     1.256655870402450        0.6594749524587034    
     1.266104410781416        0.6565346258899167    
     1.275552951160382        0.6534936531055618    
     1.285001491539348        0.6503557669077893    
     1.294450031918313        0.6471246983450760    
     1.303898572297279        0.6438041704925965    
     1.313347112676245        0.6403978923442190    
     1.322795653055211        0.6369095528618307    
     1.332244193434176        0.6333428152275498    
     1.341692733813142        0.6297013113435788    
     1.351141274192108        0.6259886366230201    
     1.360589814571074        0.6222083451128911    
     1.370038354950040        0.6183639449878929    
     1.379486895329006        0.6144588944502579    
     1.388935435707971        0.6104965980672243    
     1.398383976086937        0.6064804035734770    
     1.407832516465903        0.6024135991678123    
     1.417281056844869        0.5982994113854266    
     1.426729597223835        0.5941410031097814    
     1.436178137602800        0.5899414721035078    
     1.445626677981766        0.5857038525241852    
     1.455075218360732        0.5814311144547727    
     1.464523758739698        0.5771261546756066    
     1.473972299118663        0.5727917841480051    
     1.483420839497629        0.5684307175891322    
     1.492869379876595        0.5640455693753921    
     1.502317920255561        0.5596388574230851    
     1.511766460634527        0.5552130076224290    
     1.521215001013492        0.5507703560389274    
     1.530663541392458        0.5463131513285967    
     1.540112081771424        0.5418435574065193    
     1.549560622150390        0.5373636559669908    
     1.559009162529356        0.5328754489378840    
     1.568457702908321        0.5283808608731448    
     1.577906243287287        0.5238817412849853    
     1.587354783666253        0.5193798669169180    
     1.596803324045219        0.5148769439587352    
     1.606251864424185        0.5103746102045533    
     1.615700404803150        0.5058744371550234    
     1.625148945182116        0.5013779320648093    
     1.634597485561082        0.4968865399364299    
     1.644046025940048        0.4924016454615487    
     1.653494566319013        0.4879245749107852    
     1.662943106697979        0.4834565979731312    
     1.672391647076945        0.4789989295460143    
     1.681840187455911        0.4745527314770758    
     1.691288727834877        0.4701191142586933    
     1.700737268213842        0.4656991386762819    
     1.710185808592808        0.4612938174113896    
     1.719634348971774        0.4569041166006001    
     1.729082889350740        0.4525309573512289    
     1.738531429729706        0.4481752172148016    
     1.747979970108671        0.4438377316192811    
     1.757428510487637        0.4395192952610005    
     1.766877050866603        0.4352206634572461    
     1.776325591245569        0.4309425534604162    
     1.785774131624535        0.4266856457346738    
     1.795222672003500        0.4224505851959964    
     1.804671212382466        0.4182379824165047    
     1.814119752761432        0.4140484147939453    
     1.823568293140398        0.4098824276871898    
     1.833016833519364        0.4057405355185851    
     1.842465373898329        0.4016232228439899    
     1.851913914277295        0.3975309453913103    
     1.861362454656261        0.3934641310683314    
     1.870810995035227        0.3894231809406304    
     1.880259535414192        0.3854084701803411    
     1.889708075793158        0.3814203489865234    
     1.899156616172124        0.3774591434778765    
     1.908605156551090        0.3735251565585234    
     1.918053696930056        0.3696186687575751    
     1.927502237309021        0.3657399390431667    
     1.936950777687987        0.3618892056116558    
     1.946399318066953        0.3580666866526391    
     1.955847858445919        0.3542725810904465    
     1.965296398824885        0.3505070693027470    
     1.974744939203850        0.3467703138168920    
     1.984193479582816        0.3430624599846089    
     1.993642019961782        0.3393836366356342    
     2.003090560340748        0.3357339567108745    
     2.012539100719713        0.3321135178756660    
     2.021987641098679        0.3285224031136796    
     2.031436181477645        0.3249606813020282    
     2.040884721856611        0.3214284077680931    
     2.050333262235577        0.3179256248285946    
     2.059781802614542        0.3144523623114082    
     2.069230342993508        0.3110086380606248    
     2.078678883372474        0.3075944584253245    
     2.088127423751440        0.3042098187325409    
     2.097575964130406        0.3008547037448741    
     2.107024504509372        0.2975290881031890    
     2.116473044888337        0.2942329367548411    
     2.125921585267303        0.2909662053678471    
     2.135370125646269        0.2877288407314185    
     2.144818666025234        0.2845207811432504    
     2.154267206404200        0.2813419567839655    
     2.163715746783166        0.2781922900790911    
     2.173164287162132        0.2750716960489334    
     2.182612827541098        0.2719800826467209    
     2.192061367920064        0.2689173510853583    
     2.201509908299029        0.2658833961531370    
     2.210958448677995        0.2628781065187381    
     2.220406989056961        0.2599013650258391    
     2.229855529435927        0.2569530489776569    
     2.239304069814892        0.2540330304117155    
     2.248752610193858        0.2511411763651474    
     2.258201150572824        0.2482773491308153    
     2.267649690951790        0.2454414065045313    
     2.277098231330756        0.2426332020236536    
     2.286546771709721        0.2398525851973203    
     2.295995312088687        0.2370994017285851    
     2.305443852467653        0.2343734937286990    
     2.314892392846619        0.2316746999237857    
     2.324340933225585        0.2290028558541508    
     2.333789473604551        0.2263577940664459    
     2.343238013983516        0.2237393442989219    
     2.352686554362482        0.2211473336599779    
     2.362135094741448        0.2185815868002293    
     2.371583635120413        0.2160419260782852    
     2.381032175499379        0.2135281717204476    
     2.390480715878345        0.2110401419745138    
     2.399929256257311        0.2085776532578811    
     2.409377796636277        0.2061405203001224    
     2.418826337015243        0.2037285562802229    
     2.428274877394208        0.2013415729586367    
     2.437723417773174        0.1989793808043407    
     2.447171958152140        0.1966417891170374    
     2.456620498531106        0.1943286061446702    
     2.466069038910072        0.1920396391964007    
     2.475517579289037        0.1897746947511914    
     2.484966119668003        0.1875335785621461    
     2.494414660046969        0.1853160957567339    
     2.503863200425934        0.1831220509330459    
     2.513311740804900        0.1809512482521985    
     2.522760281183866        0.1788034915270265    
     2.532208821562832        0.1766785843071746    
     2.541657361941798        0.1745763299607141    
     2.551105902320764        0.1724965317523993    
     2.560554442699730        0.1704389929186702    
     2.570002983078695        0.1684035167395175    
     2.579451523457661        0.1663899066073078    
     2.588900063836627        0.1643979660926744    
     2.598348604215593        0.1624274990075732    
     2.607797144594558        0.1604783094655959    
     2.617245684973524        0.1585502019396333    
     2.626694225352490        0.1566429813169854    
     2.636142765731456        0.1547564529519934    
     2.645591306110421        0.1528904227162877    
     2.655039846489387        0.1510446970467301    
     2.664488386868353        0.1492190829911278    
     2.673936927247319        0.1474133882517961    
     2.683385467626285        0.1456274212270493    
     2.692834008005251        0.1438609910506823    
     2.702282548384216        0.1421139076295192    
     2.711731088763182        0.1403859816790969    
     2.721179629142148        0.1386770247575430    
     2.730628169521113        0.1369868492977160    
     2.740076709900079        0.1353152686376695    
     2.749525250279045        0.1336620970494961    
     2.758973790658011        0.1320271497666098    
     2.768422331036977        0.1304102430095238    
     2.777870871415943        0.1288111940101776    
     2.787319411794908        0.1272298210348601    
     2.796767952173874        0.1256659434057880    
     2.806216492552840        0.1241193815213807    
     2.815665032931806        0.1225899568752828    
     2.825113573310772        0.1210774920741774    
     2.834562113689737        0.1195818108544366    
     2.844010654068703        0.1181027380976516    
     2.853459194447669        0.1166400998450822    
     2.862907734826635        0.1151937233110664    
     2.872356275205600        0.1137634368954304    
     2.881804815584566        0.1123490701949351    
     2.891253355963532        0.1109504540137936    
     2.900701896342498        0.1095674203732991    
     2.910150436721464        0.1081998025205922    
     2.919598977100430        0.1068474349366053    
     2.929047517479395        0.1055101533432121    
     2.938496057858361        0.1041877947096124    
     2.947944598237327        0.1028801972579868    
     2.957393138616293        0.1015872004684444    
     2.966841678995258        0.1003086450832937    
     2.976290219374224        0.9904437311066594E-01
     2.985738759753190        0.9779422782750932E-01
     2.995187300132156        0.9655805378198877E-01
     3.004635840511122        0.9533569679530794E-01
     3.014084380890087        0.9412700396298058E-01
     3.023532921269053        0.9293182365557418E-01
     3.032981461648019        0.9175000551894281E-01
     3.042430002026985        0.9058140047397792E-01
     3.051878542405951        0.8942586071589184E-01
     3.061327082784916        0.8828323971305521E-01
     3.070775623163882        0.8715339220540801E-01
     3.080224163542848        0.8603617420246237E-01
     3.089672703921813        0.8493144298091390E-01
     3.099121244300779        0.8383905708188075E-01
     3.108569784679745        0.8275887630778431E-01
     3.118018325058711        0.8169076171889041E-01
     3.127466865437677        0.8063457562952399E-01
     3.136915405816643        0.7959018160397371E-01
     3.146363946195609        0.7855744445210094E-01
     3.155812486574574        0.7753623022466490E-01
     3.165261026953540        0.7652640620838062E-01
     3.174709567332506        0.7552784092072061E-01
     3.184158107711472        0.7454040410447244E-01
     3.193606648090437        0.7356396672206582E-01
     3.203055188469403        0.7259840094967979E-01
     3.212503728848369        0.7164358017114121E-01
     3.221952269227335        0.7069937897162591E-01
     3.231400809606300        0.6976567313117188E-01
     3.240849349985266        0.6884233961801728E-01
     3.250297890364232        0.6792925658176789E-01
     3.259746430743198        0.6702630334640948E-01
     3.269194971122164        0.6613336040316933E-01
     3.278643511501130        0.6525030940323800E-01
     3.288092051880095        0.6437703315035888E-01
     3.297540592259061        0.6351341559329386E-01
     3.306989132638027        0.6265934181817277E-01
     3.316437673016993        0.6181469804073465E-01
     3.325886213395958        0.6097937159846627E-01
     3.335334753774924        0.6015325094264698E-01
     3.344783294153890        0.5933622563030668E-01
     3.354231834532856        0.5852818631609952E-01
     3.363680374911822        0.5772902474410471E-01
     3.373128915290788        0.5693863373955824E-01
     3.382577455669753        0.5615690720051875E-01
     3.392025996048719        0.5538374008947805E-01
     3.401474536427685        0.5461902842491683E-01
     3.410923076806651        0.5386266927281355E-01
     3.420371617185616        0.5311456073810934E-01
     3.429820157564582        0.5237460195613628E-01
     3.439268697943548        0.5164269308401077E-01
     3.448717238322514        0.5091873529199659E-01
     3.458165778701479        0.5020263075484983E-01
     3.467614319080445        0.4949428264313767E-01
     3.477062859459411        0.4879359511453735E-01
     3.486511399838377        0.4810047330512299E-01
     3.495959940217343        0.4741482332064283E-01
     3.505408480596309        0.4673655222778954E-01
     3.514857020975274        0.4606556804546818E-01
     3.524305561354240        0.4540177973606342E-01
     3.533754101733206        0.4474509719671012E-01
     3.543202642112172        0.4409543125056772E-01
     3.552651182491137        0.4345269363810359E-01
     3.562099722870103        0.4281679700838635E-01
     3.571548263249069        0.4218765491039285E-01
     3.580996803628035        0.4156518178433097E-01
     3.590445344007001        0.4094929295297962E-01
     3.599893884385966        0.4033990461304984E-01
     3.609342424764932        0.3973693382656673E-01
     3.618790965143898        0.3914029851227643E-01
     3.628239505522864        0.3854991743707823E-01
     3.637688045901830        0.3796571020748512E-01
     3.647136586280795        0.3738759726111289E-01
     3.656585126659761        0.3681549985820097E-01
     3.666033667038727        0.3624934007316524E-01
     3.675482207417693        0.3568904078618518E-01
     3.684930747796658        0.3513452567482640E-01
     3.694379288175624        0.3458571920569901E-01
     3.703827828554590        0.3404254662615537E-01
     3.713276368933556        0.3350493395602563E-01
     3.722724909312522        0.3297280797939369E-01
     3.732173449691488        0.3244609623641521E-01
     3.741621990070453        0.3192472701517634E-01
     3.751070530449419        0.3140862934359662E-01
     3.760519070828385        0.3089773298137606E-01
     3.769967611207351        0.3039196841198546E-01
     3.779416151586316        0.2989126683470415E-01
     3.788864691965282        0.2939556015670273E-01
     3.798313232344248        0.2890478098517313E-01
     3.807761772723214        0.2841886261950598E-01
     3.817210313102180        0.2793773904351639E-01
     3.826658853481145        0.2746134491771784E-01
     3.836107393860111        0.2698961557164565E-01
     3.845555934239077        0.2652248699622944E-01
     3.855004474618043        0.2605989583621605E-01
     3.864453014997009        0.2560177938264214E-01
     3.873901555375974        0.2514807556535781E-01
     3.883350095754940        0.2469872294560134E-01
     3.892798636133906        0.2425366070862416E-01
     3.902247176512872        0.2381282865636816E-01
     3.911695716891837        0.2337616720019439E-01
     3.921144257270803        0.2294361735366275E-01
     3.930592797649769        0.2251512072536490E-01
     3.940041338028735        0.2209061951180780E-01
     3.949489878407701        0.2167005649035028E-01
     3.958938418786667        0.2125337501219154E-01
     3.968386959165632        0.2084051899541130E-01
     3.977835499544598        0.2043143291806338E-01
     3.987284039923564        0.2002606181131977E-01
     3.996732580302530        0.1962435125266825E-01
     4.006181120681496        0.1922624735916193E-01
     4.015629661060461        0.1883169678072001E-01
     4.025078201439427        0.1844064669348130E-01
     4.034526741818393        0.1805304479320919E-01
     4.043975282197358        0.1766883928874882E-01
     4.053423822576324        0.1728797889553479E-01
     4.062872362955290        0.1691041282915141E-01
     4.072320903334256        0.1653609079894415E-01
     4.081769443713222        0.1616496300168069E-01
     4.091217984092188        0.1579698011526506E-01
     4.100666524471153        0.1543209329250048E-01
     4.110115064850119        0.1507025415490373E-01
     4.119563605229085        0.1471141478656928E-01
     4.129012145608050        0.1435552772808381E-01
     4.138460685987017        0.1400254597048931E-01
     4.147909226365982        0.1365242294929687E-01
     4.157357766744948        0.1330511253854927E-01
     4.166806307123914        0.1296056904493149E-01
     4.176254847502880        0.1261874720193107E-01
     4.185703387881845        0.1227960216404555E-01
     4.195151928260811        0.1194308950103876E-01
     4.204600468639777        0.1160916519224386E-01
     4.214049009018743        0.1127778562091414E-01
     4.223497549397709        0.1094890756862093E-01
     4.232946089776674        0.1062248820969722E-01
     4.242394630155641        0.1029848510572847E-01
     4.251843170534606        0.9976856200088525E-02
     4.261291710913572        0.9657559812521244E-02
     4.270740251292538        0.9340554633833958E-02
     4.280188791671503        0.9025799733566599E-02
     4.289637332050469        0.8713254892833932E-02
     4.299085872429435        0.8402883069919714E-02
     4.308534412808401        0.8094658052526904E-02
     4.317982953187366        0.7788577596724113E-02
     4.327431493566332        0.7484678337561095E-02
     4.336880033945298        0.7183048032296309E-02
     4.346328574324264        0.6883832592235076E-02
     4.355777114703230        0.6587237489069141E-02
     4.365225655082195        0.6293524414608125E-02
     4.374674195461162        0.6003004544150290E-02
     4.384122735840127        0.5716029731559444E-02
     4.393571276219093        0.5432982728737904E-02
     4.403019816598059        0.5154267237917854E-02
     4.412468356977024        0.4880298347722959E-02
     4.421916897355990        0.4611493698498545E-02
     4.431365437734956        0.4348265570190586E-02
     4.440813978113922        0.4091013979032374E-02
     4.450262518492887        0.3840120797345109E-02
     4.459711058871854        0.3595944864566880E-02
     4.469159599250819        0.3358818029682355E-02
     4.478608139629785        0.3129042049827805E-02
     4.488056680008751        0.2906886262857602E-02
     4.497505220387716        0.2692585950121432E-02
     4.506953760766683        0.2486341307592366E-02
     4.516402301145648        0.2288316947381249E-02
     4.525850841524614        0.2098641856636834E-02
     4.535299381903580        0.1917409746202233E-02
     4.544747922282546        0.1744679726743009E-02
     4.554196462661511        0.1580477255043756E-02
     4.563645003040477        0.1424795297529739E-02
     4.573093543419443        0.1277595661520202E-02
     4.582542083798408        0.1138810446915019E-02
     4.591990624177375        0.1008343571404706E-02
     4.601439164556340        0.8860723199616230E-03
     4.610887704935306        0.7718488626833554E-03
     4.620336245314272        0.6655016709655788E-03
     4.629784785693237        0.5668367345229608E-03
     4.639233326072204        0.4756384286895095E-03
     4.648681866451169        0.3916697758726500E-03
     4.658130406830135        0.3146716236163417E-03
     4.667578947209101        0.2443597599081297E-03
     4.677027487588067        0.1804177216753849E-03
     4.686476027967032        0.1224793569347581E-03
     4.695924568345998        0.7008233690842807E-04
     4.705373108724964        0.2249838902489606E-04
     4.714821649103929         0.000000000000000    
  0  3  2  0  0.000000   #orbital l, n, z, is_polarized, population
 500    0.6333289362930242E-02     3.160311392102191     # npts, delta, cutoff
     0.000000000000000       -0.3075384459134675    
    0.6333289362930242E-02   -0.3074235988063807    
    0.1266657872586048E-01   -0.3070749744596905    
    0.1899986808879073E-01   -0.3064941310069109    
    0.2533315745172097E-01   -0.3056813666099391    
    0.3166644681465121E-01   -0.3046370975379839    
    0.3799973617758146E-01   -0.3033618580321761    
    0.4433302554051170E-01   -0.3018562997187103    
    0.5066631490344194E-01   -0.3001211908461552    
    0.5699960426637218E-01   -0.2981574153803280    
    0.6333289362930242E-01   -0.2959659719663479    
    0.6966618299223266E-01   -0.2935479727635649    
    0.7599947235516291E-01   -0.2909046421583960    
    0.8233276171809314E-01   -0.2880373153602015    
    0.8866605108102339E-01   -0.2849474368856084    
    0.9499934044395363E-01   -0.2816365589369922    
    0.1013326298068839       -0.2781063396811462    
    0.1076659191698141       -0.2743585414344382    
    0.1139992085327444       -0.2703950287610078    
    0.1203324978956746       -0.2662177664907543    
    0.1266657872586048       -0.2618288176640446    
    0.1329990766215351       -0.2572303414101873    