<preamble>

<basis_specs>
===============================================================================
Sb                   Z=  51    Mass=  121.76        Charge= 0.17977+309
Lmxo=2 Lmxkb= 2    BasisType=split      Semic=T
L=0  Nsemic=0  Cnfigmx=5
          i=1  nzeta=2  polorb=0  (5s)
            splnorm:   0.15000    
               vcte:    40.000    
               rinn:    5.0364    
               qcoe:    0.0000    
               qyuk:    0.0000    
               qwid:   0.10000E-01
                rcs:    5.5904      3.9011    
            lambdas:    1.0000      1.0000    
L=1  Nsemic=0  Cnfigmx=5
          i=1  nzeta=2  polorb=0  (5p)  (to be polarized non-perturbatively)
            splnorm:   0.15000    
               vcte:    40.000    
               rinn:    6.5214    
               qcoe:    0.0000    
               qyuk:    0.0000    
               qwid:   0.10000E-01
                rcs:    7.2388      5.1546    
            lambdas:    1.0000      1.0000    
L=2  Nsemic=1  Cnfigmx=5
          i=1  nzeta=1  polorb=0  (4d)  (semicore shell)
            splnorm:   0.15000    
               vcte:    40.000    
               rinn:    2.9489    
               qcoe:    0.0000    
               qyuk:    0.0000    
               qwid:   0.10000E-01
                rcs:    3.2732    
            lambdas:    1.0000    
          i=2  nzeta=1  polorb=0  (5d)  (non-perturbative polarization shell)
            splnorm:   0.15000    
               vcte:    40.000    
               rinn:    6.5214    
               qcoe:    0.0000    
               qyuk:    0.0000    
               qwid:   0.10000E-01
                rcs:    7.2388    
            lambdas:    1.0000    
-------------------------------------------------------------------------------
L=0  Nkbl=1  erefs: 0.17977+309
L=1  Nkbl=1  erefs: 0.17977+309
L=2  Nkbl=2  erefs: 0.17977+309 0.17977+309
===============================================================================
</basis_specs>

<pseudopotential_header>
 Sb pw nrl pcec
 ONCVPSP-3.2018-03-09Hamann's oncvpsp                        
 5s 2.00  r= 1.91/5p 3.00  r= 2.12/4d10.00  r= 1.82/                    4d:5s:5p:
</pseudopotential_header>
</preamble>
Sb                            # Symbol
Sb                            # Label
   51                         # Atomic number
     15.0000000000                             # Valence charge
     121.760000000        # Mass 
     226.794843201        # Self energy 
   2   6                      # Lmax for basis, no. of nl orbitals 
   2   6                      # Lmax for projectors, no. of nl KB projectors
# PAOs:__________________________
  0  5  1  0  2.000000   #orbital l, n, z, is_polarized, population
 500    0.1120311427315907E-01     5.590354022306378     # npts, delta, cutoff
     0.000000000000000        0.4546280294140898E-01
    0.1120311427315907E-01    0.4554433938398313E-01
    0.2240622854631815E-01    0.4579216709474299E-01
    0.3360934281947722E-01    0.4620459295374756E-01
    0.4481245709263629E-01    0.4678068820471285E-01
    0.5601557136579537E-01    0.4751915886608445E-01
    0.6721868563895445E-01    0.4841835149572304E-01
    0.7842179991211351E-01    0.4947626074034836E-01
    0.8962491418527259E-01    0.5069053850173447E-01
    0.1008280284584317        0.5205850465575475E-01
    0.1120311427315907        0.5357715926332037E-01
    0.1232342570047498        0.5524319620631770E-01
    0.1344373712779089        0.5705301817456047E-01
    0.1456404855510680        0.5900275292274768E-01
    0.1568435998242270        0.6108827070975035E-01
    0.1680467140973861        0.6330520282634651E-01
    0.1792498283705452        0.6564896111182779E-01
    0.1904529426437042        0.6811475835476136E-01
    0.2016560569168633        0.7069762946863571E-01
    0.2128591711900224        0.7339245332917060E-01
    0.2240622854631815        0.7619397515676088E-01
    0.2352653997363406        0.7909682932486056E-01
    0.2464685140094996        0.8209556247312655E-01
    0.2576716282826587        0.8518465680282272E-01
    0.2688747425558178        0.8835855343135893E-01
    0.2800778568289768        0.9161167568290184E-01
    0.2912809711021359        0.9493845219273934E-01
    0.3024840853752950        0.9833333970451626E-01
    0.3136871996484540        0.1017908454415568    
    0.3248903139216132        0.1053055489362590    
    0.3360934281947722        0.1088721232049464    
    0.3472965424679313        0.1124853551595946    
    0.3584996567410904        0.1161401651524723    
    0.3697027710142494        0.1198316255549342    
    0.3809058852874085        0.1235549782773320    
    0.3921089995605676        0.1273056511432510    
    0.4033121138337267        0.1310792730379817    
    0.4145152281068857        0.1348716877582686    
    0.4257183423800448        0.1386789664978972    
    0.4369214566532039        0.1424974189115361    
    0.4481245709263629        0.1463236027074125    
    0.4593276851995220        0.1501543317277926    
    0.4705307994726811        0.1539866824848509    
    0.4817339137458402        0.1578179991282555    
    0.4929370280189992        0.1616458968296518    
    0.5041401422921583        0.1654682635781214    
    0.5153432565653174        0.1692832603895882    
    0.5265463708384764        0.1730893199419860    
    0.5377494851116356        0.1768851436567300    
    0.5489525993847946        0.1806696972556256    
    0.5601557136579537        0.1844422048307123    
    0.5713588279311127        0.1882021414726791    
    0.5825619422042718        0.1919492245113067    
    0.5937650564774309        0.1956834034288946    
    0.6049681707505900        0.1994048485147249    
    0.6161712850237491        0.2031139383353186    
    0.6273743992969081        0.2068112461014556    
    0.6385775135700672        0.2104975250186765    
    0.6497806278432263        0.2141736927131987    
    0.6609837421163853        0.2178408148298493    
    0.6721868563895445        0.2215000879026959    
    0.6833899706627035        0.2251528216025682    
    0.6945930849358626        0.2288004204685422    
    0.7057961992090216        0.2324443652327103    
    0.7169993134821807        0.2360861938491860    
    0.7282024277553398        0.2397274823392747    
    0.7394055420284988        0.2433698255650653    
    0.7506086563016580        0.2470148180433974    
    0.7618117705748170        0.2506640349112038    
    0.7730148848479761        0.2543190131516521    
    0.7842179991211351        0.2579812331883137    
    0.7954211133942942        0.2616521009517954    
    0.8066242276674533        0.2653329305198846    
    0.8178273419406124        0.2690249274283311    
    0.8290304562137715        0.2727291727449122    
    0.8402335704869305        0.2764466079944641    
    0.8514366847600896        0.2801780210171139    
    0.8626397990332487        0.2839240328360593    
    0.8738429133064077        0.2876850856049825    
    0.8850460275795669        0.2914614316985145    
    0.8962491418527259        0.2952531240022258    
    0.9074522561258850        0.2990600074513701    
    0.9186553703990440        0.3028817118601261    
    0.9298584846722031        0.3067176460754288    
    0.9410615989453622        0.3105669934816773    
    0.9522647132185212        0.3144287088746825    
    0.9634678274916804        0.3183015167153008    
    0.9746709417648394        0.3221839107652062    
    0.9858740560379985        0.3260741550993729    
    0.9970771703111575        0.3299702864820019    
     1.008280284584317        0.3338701180849510    
     1.019483398857476        0.3377712445202044    
     1.030686513130635        0.3416710481506581    
     1.041889627403794        0.3455667066364526    
     1.053092741676953        0.3494552016673794    
     1.064295855950112        0.3533333288255139    
     1.075498970223271        0.3571977085162062    
     1.086702084496430        0.3610447978999848    
     1.097905198769589        0.3648709037527669    
     1.109108313042748        0.3686721961770640    
     1.120311427315907        0.3724447230826886    
     1.131514541589066        0.3761844253517533    
     1.142717655862225        0.3798871525996126    
     1.153920770135385        0.3835486794407468    
     1.165123884408544        0.3871647221665449    
     1.176326998681703        0.3907309557404308    
     1.187530112954862        0.3942430310148131    
     1.198733227228021        0.3976965920740169    
     1.209936341501180        0.4010872936074861    
     1.221139455774339        0.4044108182183560    
     1.232342570047498        0.4076628935737486    
     1.243545684320657        0.4108393093050209    
     1.254748798593816        0.4139359335685274    
     1.265951912866975        0.4169487291803474    
     1.277155027140134        0.4198737692417617    
     1.288358141413293        0.4227072521760741    
     1.299561255686453        0.4254455161015987    
     1.310764369959612        0.4280850524703042    
     1.321967484232771        0.4306225189065746    
     1.333170598505930        0.4330547511859202    
     1.344373712779089        0.4353787742991192    
     1.355576827052248        0.4375918125531713    
     1.366779941325407        0.4396912986666073    
     1.377983055598566        0.4416748818230094    
     1.389186169871725        0.4435404346530839    
     1.400389284144884        0.4452860591222220    
     1.411592398418043        0.4469100913071288    
     1.422795512691202        0.4484111050517795    
     1.433998626964361        0.4497879144996393    
     1.445201741237520        0.4510395754166219    
     1.456404855510680        0.4521653825450381    
     1.467607969783839        0.4531648709173753    
     1.478811084056998        0.4540378157573169    
     1.490014198330157        0.4547842289772608    
     1.501217312603316        0.4554043552577517    
     1.512420426876475        0.4558986671583005    
     1.523623541149634        0.4562678593049092    
     1.534826655422793        0.4565128417043155    
     1.546029769695952        0.4566347322394450    
     1.557232883969111        0.4566348484046684    
     1.568435998242270        0.4565146983431393    
     1.579639112515429        0.4562759712517516    
     1.590842226788588        0.4559205272220769    
     1.602045341061747        0.4554503865879995    
     1.613248455334907        0.4548677188526527    
     1.624451569608066        0.4541748312686941    
     1.635654683881225        0.4533741571468828    
     1.646857798154384        0.4524682439683899    
     1.658060912427543        0.4514597413762655    
     1.669264026700702        0.4503513891209789    
     1.680467140973861        0.4491460050340140    
     1.691670255247020        0.4478464731020844    
     1.702873369520179        0.4464557317126877    
     1.714076483793338        0.4449767621884637    
     1.725279598066497        0.4434125774924610    
     1.736482712339656        0.4417662113486207    
     1.747685826612815        0.4400407079666602    
     1.758888940885974        0.4382391120489181    
     1.770092055159134        0.4363644593946110    
     1.781295169432293        0.4344197680856748    
     1.792498283705452        0.4324080302966755    
     1.803701397978611        0.4303322047664651    
     1.814904512251770        0.4281952099642296    
     1.826107626524929        0.4259999179774485    
     1.837310740798088        0.4237491491439440    
     1.848513855071247        0.4214456674480492    
     1.859716969344406        0.4190921767129259    
     1.870920083617565        0.4166913174532427    
     1.882123197890724        0.4142456644623445    
     1.893326312163883        0.4117577258366292    
     1.904529426437042        0.4092299426242986    
     1.915732540710201        0.4066646870654136    
     1.926935654983361        0.4040642599004666    
     1.938138769256520        0.4014308882092962    
     1.949341883529679        0.3987667243372593    
     1.960544997802838        0.3960738468867834    
     1.971748112075997        0.3933542633630318    
     1.982951226349156        0.3906099125689214    
     1.994154340622315        0.3878426663754983    
     2.005357454895474        0.3850543315410082    
     2.016560569168633        0.3822466516068571    
     2.027763683441792        0.3794213087180019    
     2.038966797714951        0.3765799253969362    
     2.050169911988110        0.3737240662750226    
     2.061373026261270        0.3708552397816114    
     2.072576140534429        0.3679748997914817    
     2.083779254807588        0.3650844472311750    
     2.094982369080747        0.3621852316448465    
     2.106185483353906        0.3592785527202642    
     2.117388597627065        0.3563656617756277    
     2.128591711900224        0.3534477632078912    
     2.139794826173383        0.3505260159032816    
     2.150997940446542        0.3476015346107378    
     2.162201054719701        0.3446753912789846    
     2.173404168992860        0.3417486163579647    
     2.184607283266019        0.3388222000653749    
     2.195810397539178        0.3358970936190391    
     2.207013511812337        0.3329742104358513    
     2.218216626085497        0.3300544272980256    
     2.229419740358656        0.3271385854873950    
     2.240622854631815        0.3242274918884711    
     2.251825968904974        0.3213219200609999    
     2.263029083178133        0.3184226112827231    
     2.274232197451292        0.3155302755630596    
     2.285435311724451        0.3126455926284015    
     2.296638425997610        0.3097692128797194    
     2.307841540270769        0.3069017583231562    
     2.319044654543928        0.3040438234742793    
     2.330247768817087        0.3011959762366536    
     2.341450883090246        0.2983587587553842    
     2.352653997363405        0.2955326882462639    
     2.363857111636564        0.2927182578011520    
     2.375060225909724        0.2899159371702016    
     2.386263340182883        0.2871261735215306    
     2.397466454456042        0.2843493921789354    
     2.408669568729201        0.2815859973382139    
     2.419872683002360        0.2788363727626736    
     2.431075797275519        0.2761008824583710    
     2.442278911548678        0.2733798713296265    
     2.453482025821837        0.2706736658153434    
     2.464685140094996        0.2679825745066455    
     2.475888254368155        0.2653068887463431    
     2.487091368641314        0.2626468832107174    
     2.498294482914473        0.2600028164741030    
     2.509497597187632        0.2573749315567460    
     2.520700711460792        0.2547634564563863    
     2.531903825733951        0.2521686046640217    
     2.543106940007110        0.2495905756642822    
     2.554310054280269        0.2470295554208464    
     2.565513168553428        0.2444857168473117    
     2.576716282826587        0.2419592202639225    
     2.587919397099746        0.2394502138405569    
     2.599122511372905        0.2369588340263442    
     2.610325625646064        0.2344852059663030    
     2.621528739919223        0.2320294439053519    
     2.632731854192382        0.2295916515800548    
     2.643934968465541        0.2271719225984468    
     2.655138082738700        0.2247703408082733    
     2.666341197011859        0.2223869806539781    
     2.677544311285019        0.2200219075227511    
     2.688747425558178        0.2176751780799553    
     2.699950539831337        0.2153468405942296    
     2.711153654104496        0.2130369352525640    
     2.722356768377655        0.2107454944656381    
     2.733559882650814        0.2084725431636928    
     2.744762996923973        0.2062180990832191    
     2.755966111197132        0.2039821730447151    
     2.767169225470291        0.2017647692217805    
     2.778372339743450        0.1995658854017892    
     2.789575454016609        0.1973855132383881    
     2.800778568289768        0.1952236384960602    
     2.811981682562927        0.1930802412869751    
     2.823184796836086        0.1909552963003607    
     2.834387911109246        0.1888487730246034    
     2.845591025382405        0.1867606359622976    
     2.856794139655564        0.1846908448384436    
     2.867997253928723        0.1826393548019972    
     2.879200368201882        0.1806061166209671    
     2.890403482475041        0.1785910768712426    
     2.901606596748200        0.1765941781193460    
     2.912809711021359        0.1746153590992755    
     2.924012825294518        0.1726545548836272    
     2.935215939567677        0.1707116970491492    
     2.946419053840836        0.1687867138369060    
     2.957622168113995        0.1668795303072047    
     2.968825282387154        0.1649900684894370    
     2.980028396660313        0.1631182475269972    
     2.991231510933473        0.1612639838174084    
     3.002434625206632        0.1594271911478143    
     3.013637739479791        0.1576077808259602    
     3.024840853752950        0.1558056618068114    
     3.036043968026109        0.1540207408149279    
     3.047247082299268        0.1522529224627295    
     3.058450196572427        0.1505021093647722    
     3.069653310845586        0.1487682022481544    
     3.080856425118745        0.1470511000591712    
     3.092059539391904        0.1453507000663286    
     3.103262653665063        0.1436668979598276    
     3.114465767938222        0.1419995879476241    
     3.125668882211381        0.1403486628481712    
     3.136871996484540        0.1387140141799376    
     3.148075110757700        0.1370955322478091    
     3.159278225030859        0.1354931062264602    
     3.170481339304018        0.1339066242407905    
     3.181684453577177        0.1323359734435179    
     3.192887567850336        0.1307810400900120    
     3.204090682123495        0.1292417096104526    
     3.215293796396654        0.1277178666793979    
     3.226496910669813        0.1262093952828382    
     3.237700024942972        0.1247161787828148    
     3.248903139216131        0.1232380999796796    
     3.260106253489290        0.1217750411720651    
     3.271309367762449        0.1203268842146391    
     3.282512482035608        0.1188935105737099    
     3.293715596308767        0.1174748013807516    
     3.304918710581927        0.1160706374839105    
     3.316121824855086        0.1146808994975586    
     3.327324939128245        0.1133054678499536    
     3.338528053401404        0.1119442228290651    
     3.349731167674563        0.1105970446266249    
     3.360934281947722        0.1092638133804544    
     3.372137396220881        0.1079444092151281    
     3.383340510494040        0.1066387122810215    
     3.394543624767199        0.1053466027917960    
     3.405746739040358        0.1040679610603704    
     3.416949853313517        0.1028026675334265    
     3.428152967586676        0.1015506028244969    
     3.439356081859835        0.1003116477456777    
     3.450559196132995        0.9908568333801142E-01
     3.461762310406154        0.9787259090058266E-01
     3.472965424679313        0.9667225201836725E-01
     3.484168538952472        0.9548454858887696E-01
     3.495371653225631        0.9430936284763687E-01
     3.506574767498790        0.9314657739253668E-01
     3.517777881771949        0.9199607520708521E-01
     3.528980996045108        0.9085773968260651E-01
     3.540184110318267        0.8973145463941341E-01
     3.551387224591426        0.8861710434699106E-01
     3.562590338864585        0.8751457354319288E-01
     3.573793453137744        0.8642374745256617E-01
     3.584996567410903        0.8534451180385416E-01
     3.596199681684062        0.8427675284649981E-01
     3.607402795957222        0.8322035736631264E-01
     3.618605910230381        0.8217521270034943E-01
     3.629809024503540        0.8114120675103367E-01
     3.641012138776699        0.8011822799952688E-01
     3.652215253049858        0.7910616551837971E-01
     3.663418367323017        0.7810490898346406E-01
     3.674621481596176        0.7711434868521316E-01
     3.685824595869335        0.7613437553920596E-01
     3.697027710142494        0.7516488109611395E-01
     3.708230824415653        0.7420575755103818E-01
     3.719433938688812        0.7325689775225550E-01
     3.730637052961971        0.7231819520938929E-01
     3.741840167235130        0.7138954410102835E-01
     3.753043281508289        0.7047083928181246E-01
     3.764246395781449        0.6956197628900279E-01
     3.775449510054608        0.6866285134855533E-01
     3.786652624327767        0.6777336138071549E-01
     3.797855738600926        0.6689340400515056E-01
     3.809058852874085        0.6602287754563625E-01
     3.820261967147244        0.6516168103431333E-01
     3.831465081420403        0.6430971421552967E-01
     3.842668195693562        0.6346687754928354E-01
     3.853871309966721        0.6263307221428198E-01
     3.865074424239880        0.6180820011062691E-01
     3.876277538513039        0.6099216386214622E-01
     3.887480652786198        0.6018486681837956E-01
     3.898683767059357        0.5938621305623316E-01
     3.909886881332516        0.5859610738131587E-01
     3.921089995605676        0.5781445532896830E-01
     3.932293109878835        0.5704116316499767E-01
     3.943496224151994        0.5627613788612673E-01
     3.954699338425153        0.5551928722017208E-01
     3.965902452698312        0.5477051962595789E-01
     3.977105566971471        0.5402974429297941E-01
     3.988308681244630        0.5329687114082225E-01
     3.999511795517789        0.5257181081834961E-01
     4.010714909790948        0.5185447470266760E-01
     4.021918024064107        0.5114477489787319E-01
     4.033121138337266        0.5044262423359817E-01
     4.044324252610425        0.4974793626335663E-01
     4.055527366883585        0.4906062526270037E-01
     4.066730481156744        0.4838060622719589E-01
     4.077933595429903        0.4770779487022635E-01
     4.089136709703062        0.4704210762062695E-01
     4.100339823976221        0.4638346162016192E-01
     4.111542938249380        0.4573177472084892E-01
     4.122746052522539        0.4508696548213773E-01
     4.133949166795698        0.4444895316795032E-01
     4.145152281068857        0.4381765774358740E-01
     4.156355395342016        0.4319299987250888E-01
     4.167558509615175        0.4257490091299312E-01
     4.178761623888334        0.4196328291468068E-01
     4.189964738161494        0.4135806861500868E-01
     4.201167852434653        0.4075918143554032E-01
     4.212370966707812        0.4016654547819530E-01
     4.223574080980971        0.3958008552138548E-01
     4.234777195254130        0.3899972701606082E-01
     4.245980309527289        0.3842539608167073E-01
     4.257183423800448        0.3785701950204436E-01
     4.268386538073607        0.3729452472119433E-01
     4.279589652346766        0.3673783983904925E-01
     4.290792766619925        0.3618689360711688E-01
     4.301995880893084        0.3564161542408395E-01
     4.313198995166243        0.3510193533135496E-01
     4.324402109439403        0.3456778400853425E-01
     4.335605223712562        0.3403909276885467E-01
     4.346808337985721        0.3351579355455587E-01
     4.358011452258880        0.3299781893221616E-01
     4.369214566532039        0.3248510208804058E-01
     4.380417680805198        0.3197757682310801E-01
     4.391620795078357        0.3147517754858063E-01
     4.402823909351516        0.3097783928087904E-01
     4.414027023624675        0.3048549763682378E-01
     4.425230137897834        0.2999808882874840E-01
     4.436433252170993        0.2951554965958564E-01
     4.447636366444153        0.2903781751792689E-01
     4.458839480717312        0.2856483037306155E-01
     4.470042594990471        0.2809652676999527E-01
     4.481245709263630        0.2763284582444966E-01
     4.492448823536789        0.2717372721784732E-01
     4.503651937809948        0.2671911119228183E-01
     4.514855052083107        0.2626893854547634E-01
     4.526058166356266        0.2582315062573194E-01
     4.537261280629425        0.2538168932686742E-01
     4.548464394902584        0.2494449708315280E-01
     4.559667509175743        0.2451151686423723E-01
     4.570870623448902        0.2408269217007398E-01
     4.582073737722062        0.2365796702584333E-01
     4.593276851995221        0.2323728597687473E-01
     4.604479966268380        0.2282059408356994E-01
     4.615683080541539        0.2240783691632902E-01
     4.626886194814698        0.2199896055047853E-01
     4.638089309087857        0.2159391156120591E-01
     4.649292423361016        0.2119263701849845E-01
     4.660495537634175        0.2079508448209031E-01
     4.671698651907334        0.2040120199641701E-01
     4.682901766180493        0.2001093808557907E-01
     4.694104880453652        0.1962424174831610E-01
     4.705307994726811        0.1924106245299139E-01
     4.716511108999970        0.1886135013258904E-01
     4.727714223273129        0.1848505517972302E-01
     4.738917337546289        0.1811212844166038E-01
     4.750120451819448        0.1774252121535911E-01
     4.761323566092607        0.1737618524251988E-01
     4.772526680365766        0.1701307270465467E-01
     4.783729794638925        0.1665313621817135E-01
     4.794932908912084        0.1629632882947516E-01
     4.806136023185243        0.1594260401008815E-01
     4.817339137458402        0.1559191565178633E-01
     4.828542251731561        0.1524421806175655E-01
     4.839745366004720        0.1489946595777091E-01
     4.850948480277879        0.1455761446338274E-01
     4.862151594551038        0.1421861910314111E-01
     4.873354708824197        0.1388243579782704E-01
     4.884557823097357        0.1354902085970979E-01
     4.895760937370516        0.1321833098782482E-01
     4.906964051643675        0.1289032326327390E-01
     4.918167165916834        0.1256495514454574E-01
     4.929370280189993        0.1224218446286040E-01
     4.940573394463152        0.1192196941753534E-01
     4.951776508736311        0.1160426857137433E-01
     4.962979623009470        0.1128904084607957E-01
     4.974182737282629        0.1097624551768646E-01
     4.985385851555788        0.1066584221202282E-01
     4.996588965828947        0.1035779090019021E-01
     5.007792080102106        0.1005205189407027E-01
     5.018995194375265        0.9748585841853995E-02
     5.030198308648424        0.9447353723595441E-02
     5.041401422921584        0.9148316846789118E-02
     5.052604537194743        0.8851436841971731E-02
     5.063807651467902        0.8556675658349147E-02
     5.075010765741061        0.8263995561197833E-02
     5.086213880014220        0.7973359226970549E-02
     5.097416994287379        0.7684730947652926E-02
     5.108620108560538        0.7398081928474707E-02
     5.119823222833697        0.7113401838697800E-02
     5.131026337106856        0.6830714317408779E-02
     5.142229451380015        0.6550091558815816E-02
     5.153432565653174        0.6271664206456535E-02
     5.164635679926333        0.5995625189776444E-02
     5.175838794199492        0.5722227962126673E-02
     5.187041908472651        0.5451780457423450E-02
     5.198245022745811        0.5184636249712517E-02
     5.209448137018970        0.4921184219581804E-02
     5.220651251292129        0.4661837734304872E-02
     5.231854365565288        0.4407024052842512E-02
     5.243057479838447        0.4157174419217491E-02
     5.254260594111606        0.3912715118566904E-02
     5.265463708384765        0.3674059633903716E-02
     5.276666822657924        0.3441601947905938E-02
     5.287869936931083        0.3215710972342449E-02
     5.299073051204242        0.2996726049113289E-02
     5.310276165477401        0.2784953444377208E-02
     5.321479279750560        0.2580663745727021E-02
     5.332682394023719        0.2384090068144699E-02
     5.343885508296878        0.2195426974946291E-02
     5.355088622570038        0.2014830023297940E-02
     5.366291736843197        0.1842415848933818E-02
     5.377494851116356        0.1678262710589825E-02
     5.388697965389515        0.1522411420823578E-02
     5.399901079662674        0.1374866595917351E-02
     5.411104193935833        0.1235598163169974E-02
     5.422307308208992        0.1104543068813590E-02
     5.433510422482151        0.9816071337741905E-03
     5.444713536755310        0.8666670071550630E-03
     5.455916651028469        0.7595721680741675E-03
     5.467119765301628        0.6601469243157376E-03
     5.478322879574787        0.5681923493087987E-03
     5.489525993847946        0.4834880836790557E-03
     5.500729108121105        0.4057938969067714E-03
     5.511932222394265        0.3348508433180227E-03
     5.523135336667424        0.2703817202412506E-03
     5.534338450940583        0.2120902592185918E-03
     5.545541565213742        0.1596578180549314E-03
     5.556744679486901        0.1127345444897592E-03
     5.567947793760060        0.7091616228735796E-04
     5.579150908033219        0.3367253311008930E-04
     5.590354022306378         0.000000000000000    
  0  5  2  0  0.000000   #orbital l, n, z, is_polarized, population
 500    0.7817923061457699E-02     3.901143607667392     # npts, delta, cutoff
     0.000000000000000       -0.3018793735215088    
    0.7817923061457699E-02   -0.3018004222611180    
    0.1563584612291540E-01   -0.3015568851488202    
    0.2345376918437310E-01   -0.3011512813588273    
    0.3127169224583080E-01   -0.3005840509059778    
    0.3908961530728849E-01   -0.2998558075668487    
    0.4690753836874620E-01   -0.2989673379898808    
    0.5472546143020390E-01   -0.2979196000065116    
    0.6254338449166159E-01   -0.2967137205095691    
    0.7036130755311930E-01   -0.2953509929447750    