<preamble>

<basis_specs>
===============================================================================
Sc                   Z=  21    Mass=  44.956        Charge= 0.17977+309
Lmxo=2 Lmxkb= 2    BasisType=split      Semic=T
L=0  Nsemic=1  Cnfigmx=4
          i=1  nzeta=1  polorb=0  (3s)  (semicore shell)
            splnorm:   0.15000    
               vcte:    40.000    
               rinn:    2.8414    
               qcoe:    0.0000    
               qyuk:    0.0000    
               qwid:   0.10000E-01
                rcs:    3.1571    
            lambdas:    1.0000    
          i=2  nzeta=2  polorb=0  (4s)  (to be polarized non-perturbatively)
            splnorm:   0.15000    
               vcte:    40.000    
               rinn:    7.5858    
               qcoe:    0.0000    
               qyuk:    0.0000    
               qwid:   0.10000E-01
                rcs:    8.4287      6.1917    
            lambdas:    1.0000      1.0000    
L=1  Nsemic=1  Cnfigmx=4
          i=1  nzeta=1  polorb=0  (3p)  (semicore shell)
            splnorm:   0.15000    
               vcte:    40.000    
               rinn:    3.2210    
               qcoe:    0.0000    
               qyuk:    0.0000    
               qwid:   0.10000E-01
                rcs:    3.5753    
            lambdas:    1.0000    
          i=2  nzeta=1  polorb=0  (4p)  (non-perturbative polarization shell)
            splnorm:   0.15000    
               vcte:    40.000    
               rinn:    7.5934    
               qcoe:    0.0000    
               qyuk:    0.0000    
               qwid:   0.10000E-01
                rcs:    8.4287    
            lambdas:    1.0000    
L=2  Nsemic=0  Cnfigmx=3
          i=1  nzeta=2  polorb=0  (3d)
            splnorm:   0.15000    
               vcte:    40.000    
               rinn:    5.6569    
               qcoe:    0.0000    
               qyuk:    0.0000    
               qwid:   0.10000E-01
                rcs:    6.2792      4.0976    
            lambdas:    1.0000      1.0000    
-------------------------------------------------------------------------------
L=0  Nkbl=2  erefs: 0.17977+309 0.17977+309
L=1  Nkbl=2  erefs: 0.17977+309 0.17977+309
L=2  Nkbl=1  erefs: 0.17977+309
===============================================================================
</basis_specs>

<pseudopotential_header>
 Sc pw nrl pcec
 ONCVPSP-3.2018-03-09Hamann's oncvpsp                        
 3s 2.00  r= 1.36/3p 6.00  r= 1.36/3d 1.00  r= 1.66/                    3s:3p:3d:4s:
</pseudopotential_header>
</preamble>
Sc                            # Symbol
Sc                            # Label
   21                         # Atomic number
     11.0000000000                             # Valence charge
     44.9560000000        # Mass 
     147.255468873        # Self energy 
   2   7                      # Lmax for basis, no. of nl orbitals 
   2   6                      # Lmax for projectors, no. of nl KB projectors
# PAOs:__________________________
  0  3  1  0  2.000000   #orbital l, n, z, is_polarized, population
 500    0.6326939209093247E-02     3.157142665337530     # npts, delta, cutoff
     0.000000000000000        0.6453903100824122    
    0.6326939209093247E-02    0.6455218555242928    
    0.1265387841818649E-01    0.6459517664133645    
    0.1898081762727974E-01    0.6466678238178066    
    0.2530775683637299E-01    0.6476693139871231    
    0.3163469604546624E-01    0.6489552447302938    
    0.3796163525455949E-01    0.6505243437419587    
    0.4428857446365273E-01    0.6523750600050275    
    0.5061551367274598E-01    0.6545055659260826    
    0.5694245288183922E-01    0.6569137599368140    
    0.6326939209093248E-01    0.6595972695013828    
    0.6959633130002572E-01    0.6625534545062474    
    0.7592327050911897E-01    0.6657794110173822    
    0.8225020971821222E-01    0.6692719753917178    
    0.8857714892730546E-01    0.6730277287297191    
    0.9490408813639871E-01    0.6770430016555884    
    0.1012310273454920        0.6813138794109418    
    0.1075579665545852        0.6858362072472118    
    0.1138849057636784        0.6906055961014222    
    0.1202118449727717        0.6956174285394885    
    0.1265387841818650        0.7008668649507247    
    0.1328657233909582        0.7063488499769209    
    0.1391926626000514        0.7120581191590644    
    0.1455196018091447        0.7179892057846026    
    0.1518465410182379        0.7241364479180757    
    0.1581734802273312        0.7304939955979222    
    0.1645004194364244        0.7370558181823669    
    0.1708273586455177        0.7438157118274691    
    0.1771542978546109        0.7507673070806520    
    0.1834812370637042        0.7579040765733784    
    0.1898081762727974        0.7652193427970266    
    0.1961351154818907        0.7727062859465145    
    0.2024620546909839        0.7803579518167320    
    0.2087889939000772        0.7881672597374491    
    0.2151159331091704        0.7961270105330156    
    0.2214428723182637        0.8042298944938540    
    0.2277698115273569        0.8124684993474696    
    0.2340967507364501        0.8208353182174899    
    0.2404236899455434        0.8293227575600006    
    0.2467506291546366        0.8379231450672782    
    0.2530775683637299        0.8466287375298258    
    0.2594045075728231        0.8554317286484320    
    0.2657314467819164        0.8643242567888149    
    0.2720583859910096        0.8732984126721888    
    0.2783853252001029        0.8823462469959121    
    0.2847122644091961        0.8914597779791378    
    0.2910392036182894        0.9006309988291039    
    0.2973661428273826        0.9098518851244530    
    0.3036930820364759        0.9191144021125861    
    0.3100200212455691        0.9284105119187105    
    0.3163469604546624        0.9377321806648029    
    0.3226738996637556        0.9470713854972146    
    0.3290008388728489        0.9564201215221243    
    0.3353277780819421        0.9657704086484290    
    0.3416547172910354        0.9751142983380126    
    0.3479816565001286        0.9844438802635936    
    0.3543085957092219        0.9937512888745866    
    0.3606355349183151         1.003028709871514    
    0.3669624741274083         1.012268386589639    
    0.3732894133365016         1.021462626292449    
    0.3796163525455948         1.030603806375615    
    0.3859432917546881         1.039684380481912    
    0.3922702309637813         1.048696884527430    
    0.3985971701728745         1.057633942639187    
    0.4049241093819678         1.066488273003960    
    0.4112510485910611         1.075252693627848    
    0.4175779878001543         1.083920128005698    
    0.4239049270092476         1.092483610699121    
    0.4302318662183408         1.100936292821392    
    0.4365588054274341         1.109271447427076    
    0.4428857446365273         1.117482474803671    
    0.4492126838456206         1.125562907662156    
    0.4555396230547138         1.133506416222718    
    0.4618665622638071         1.141306813191481    
    0.4681935014729003         1.148958058623520    
    0.4745204406819936         1.156454264666942    
    0.4808473798910868         1.163789700182328    
    0.4871743191001801         1.170958795231372    
    0.4935012583092733         1.177956145428088    
    0.4998281975183665         1.184776516145601    
    0.5061551367274598         1.191414846571106    
    0.5124820759365530         1.197866253601318    
    0.5188090151456463         1.204126035570436    
    0.5251359543547395         1.210189675802404    
    0.5314628935638328         1.216052845979160    
    0.5377898327729260         1.221711409316369    
    0.5441167719820192         1.227161423538178    
    0.5504437111911125         1.232399143642525    
    0.5567706504002058         1.237421024448637    
    0.5630975896092990         1.242223722918511    
    0.5694245288183922         1.246804100244424    
    0.5757514680274854         1.251159223694809    
    0.5820784072365788         1.255286368211226    
    0.5884053464456720         1.259183017749579    
    0.5947322856547652         1.262846866359251    
    0.6010592248638584         1.266275818994416    
    0.6073861640729518         1.269467992052391    
    0.6137131032820450         1.272421713634605    
    0.6200400424911382         1.275135523526509    
    0.6263669817002315         1.277608172893531    
    0.6326939209093247         1.279838623691042    
    0.6390208601184180         1.281826047787131    
    0.6453477993275112         1.283569825797976    
    0.6516747385366045         1.285069545636456    
    0.6580016777456977         1.286325000775665    
    0.6643286169547910         1.287336188229925    
    0.6706555561638842         1.288103306256925    
    0.6769824953729775         1.288626751785541    
    0.6833094345820707         1.288907117574919    
    0.6896363737911639         1.288945189111334    
    0.6959633130002572         1.288741941250327    
    0.7022902522093505         1.288298534612470    
    0.7086171914184437         1.287616311742119    
    0.7149441306275369         1.286696793039214    
    0.7212710698366301         1.285541672475127    
    0.7275980090457235         1.284152813104247    
    0.7339249482548167         1.282532242383693    
    0.7402518874639099         1.280682147314195    
    0.7465788266730031         1.278604869415800    
    0.7529057658820965         1.276302899552460    
    0.7592327050911897         1.273778872620130    
    0.7655596443002829         1.271035562113238    
    0.7718865835093761         1.268075874584754    
    0.7782135227184694         1.264902844015232    
    0.7845404619275627         1.261519626106351    
    0.7908674011366559         1.257929492514504    
    0.7971943403457491         1.254135825039914    
    0.8035212795548424         1.250142109786696    
    0.8098482187639356         1.245951931308993    
    0.8161751579730289         1.241568966758089    
    0.8225020971821222         1.236996980045016    
    0.8288290363912154         1.232239816167704    
    0.8351559756003086         1.227301395596142    
    0.8414829148094018         1.222185707297167    
    0.8478098540184952         1.216896804635311    
    0.8541367932275884         1.211438799257314    
    0.8604637324366816         1.205815855620208    
    0.8667906716457748         1.200032185623963    
    0.8731176108548682         1.194092043354714    
    0.8794445500639614         1.187999719947042    
    0.8857714892730546         1.181759538572870    
    0.8920984284821478         1.175375849563607    
    0.8984253676912412         1.168853025671274    
    0.9047523069003344         1.162195457473383    
    0.9110792461094276         1.155407548925421    
    0.9174061853185208         1.148493713063844    
    0.9237331245276141         1.141458367861586    
    0.9300600637367074         1.134305932237160    
    0.9363870029458006         1.127040822217585    
    0.9427139421548938         1.119667447254485    
    0.9490408813639871         1.112190206691937    
    0.9553678205730803         1.104613486383855    
    0.9616947597821736         1.096941655457967    
    0.9680216989912668         1.089179063222801    
    0.9743486382003601         1.081330036213443    
    0.9806755774094533         1.073398875371322    
    0.9870025166185465         1.065389853352719    
    0.9933294558276398         1.057307211960343    
    0.9996563950367331         1.049155159691875    
     1.005983334245826         1.040937869399167    
     1.012310273454920         1.032659476051485    
     1.018637212664013         1.024324074596083    
     1.024964151873106         1.015935717909288    
     1.031291091082199         1.007498414831254    
     1.037618030291293        0.9990161282776009    
     1.043944969500386        0.9904927734212872    
     1.050271908709479        0.9819322159382083    
     1.056598847918572        0.9733382703102933    
     1.062925787127666        0.9647146981801352    
     1.069252726336759        0.9560652067515754    
     1.075579665545852        0.9473934472310369    
     1.081906604754945        0.9387030133048662    
     1.088233543964038        0.9299974396484139    
     1.094560483173132        0.9212802004631270    
     1.100887422382225        0.9125547080384534    
     1.107214361591318        0.9038243113359570    
     1.113541300800412        0.8950922945936238    
     1.119868240009505        0.8863618759489478    
     1.126195179218598        0.8776362060800071    
     1.132522118427691        0.8689183668643501    
     1.138849057636784        0.8602113700561231    
     1.145175996845878        0.8515181559824833    
     1.151502936054971        0.8428415922609006    
     1.157829875264064        0.8341844725395515    
     1.164156814473158        0.8255495152635144    
     1.170483753682251        0.8169393624699972    
     1.176810692891344        0.8083565786163069    
     1.183137632100437        0.7998036494446822    
     1.189464571309530        0.7912829808885152    
     1.195791510518624        0.7827968980248188    
     1.202118449727717        0.7743476440781009    
     1.208445388936810        0.7659373794810119    
     1.214772328145904        0.7575681809973674    
     1.221099267354997        0.7492420409132183    
     1.227426206564090        0.7409608663017456    
     1.233753145773183        0.7327264783677658    
     1.240080084982276        0.7245406118775638    
     1.246407024191370        0.7164049146797002    
     1.252733963400463        0.7083209473222285    
     1.259060902609556        0.7002901827716113    
     1.265387841818649        0.6923140062382755    
     1.271714781027743        0.6843937151134877    
     1.278041720236836        0.6765305190218261    
     1.284368659445929        0.6687255399931148    
     1.290695598655022        0.6609798127572513    
     1.297022537864116        0.6532942851648157    
     1.303349477073209        0.6456698187358709    
     1.309676416282302        0.6381071893388108    
     1.316003355491395        0.6306070879201204    
     1.322330294700489        0.6231701214089863    
     1.328657233909582        0.6157968143169332    
     1.334984173118675        0.6084876105160975    
     1.341311112327768        0.6012428728432553    
     1.347638051536862        0.5940628823327675    
     1.353964990745955        0.5869478411124021    
     1.360291929955048        0.5798978819251491    
     1.366618869164141        0.5729130799184542    
     1.372945808373235        0.5659934650550441    
     1.379272747582328        0.5591390341737960    
     1.385599686791421        0.5523497615455503    
     1.391926626000514        0.5456255996694552    
     1.398253565209608        0.5389664774946036    
     1.404580504418701        0.5323722996142216    
     1.410907443627794        0.5258429479882477    
     1.417234382836887        0.5193782835575950    
     1.423561322045981        0.5129781472241012    
     1.429888261255074        0.5066423606390864    
     1.436215200464167        0.5003707270820579    
     1.442542139673260        0.4941630323247678    
     1.448869078882354        0.4880190454631974    
     1.455196018091447        0.4819385197196907    
     1.461522957300540        0.4759211932173644    
     1.467849896509633        0.4699667897276166    
     1.474176835718727        0.4640750193915811    
     1.480503774927820        0.4582455794163269    
     1.486830714136913        0.4524781547465839    
     1.493157653346006        0.4467724187127624    
     1.499484592555100        0.4411280336560037    
     1.505811531764193        0.4355446515309760    
     1.512138470973286        0.4300219144871256    
     1.518465410182379        0.4245594554290473    
     1.524792349391473        0.4191568985566489    
     1.531119288600566        0.4138138598857387    
     1.537446227809659        0.4085299477496601    
     1.543773167018752        0.4033047632825837    
     1.550100106227846        0.3981379008850299    
     1.556427045436939        0.3930289486722082    
     1.562753984646032        0.3879774889057028    
     1.569080923855125        0.3829830984090665    
     1.575407863064219        0.3780453489678166    
     1.581734802273312        0.3731638077143605    
     1.588061741482405        0.3683380374983181    
     1.594388680691498        0.3635675972427375    
     1.600715619900592        0.3588520422866435    
     1.607042559109685        0.3541909247143833    
     1.613369498318778        0.3495837936721871    
     1.619696437527871        0.3450301956723766    
     1.626023376736965        0.3405296748856158    
     1.632350315946058        0.3360817734216084    
     1.638677255155151        0.3316860315986219    
     1.645004194364244        0.3273419882021996    
     1.651331133573338        0.3230491807334401    
     1.657658072782431        0.3188071456471666    
     1.663985011991524        0.3146154185803482    
     1.670311951200617        0.3104735345710794    
     1.676638890409710        0.3063810282684517    
     1.682965829618804        0.3023374341336085    
     1.689292768827897        0.2983422866322948    
     1.695619708036990        0.2943951204191788    
     1.701946647246084        0.2904954705142269    
     1.708273586455177        0.2866428724714102    
     1.714600525664270        0.2828368625399930    
     1.720927464873363        0.2790769778186606    
     1.727254404082456        0.2753627564027390    
     1.733581343291550        0.2716937375247296    
     1.739908282500643        0.2680694616884046    
     1.746235221709736        0.2644894707966756    
     1.752562160918830        0.2609533082734514    
     1.758889100127923        0.2574605191797032    
     1.765216039337016        0.2540106503239243    
     1.771542978546109        0.2506032503671951    
     1.777869917755202        0.2472378699230340    
     1.784196856964296        0.2439140616522181    
     1.790523796173389        0.2406313803527533    
     1.796850735382482        0.2373893830451664    
     1.803177674591576        0.2341876290532827    
     1.809504613800669        0.2310256800806482    
     1.815831553009762        0.2279031002827613    
     1.822158492218855        0.2248194563352509    
     1.828485431427948        0.2217743174981574    
     1.834812370637042        0.2187672556764556    
     1.841139309846135        0.2157978454769497    
     1.847466249055228        0.2128656642616807    
     1.853793188264321        0.2099702921979665    
     1.860120127473415        0.2071113123052045    
     1.866447066682508        0.2042883104985517    
     1.872774005891601        0.2015008756295981    
     1.879100945100694        0.1987485995241485    
     1.885427884309788        0.1960310770172169    
     1.891754823518881        0.1933479059853407    
     1.898081762727974        0.1906986873763115    
     1.904408701937067        0.1880830252364271    
     1.910735641146161        0.1855005267353527    
     1.917062580355254        0.1829508021886864    
     1.923389519564347        0.1804334650783149    
     1.929716458773440        0.1779481320706471    
     1.936043397982534        0.1754944230328070    
     1.942370337191627        0.1730719610468644    
     1.948697276400720        0.1706803724221828    
     1.955024215609813        0.1683192867059584    
     1.961351154818907        0.1659883366920218    
     1.967678094028000        0.1636871584279706    
     1.974005033237093        0.1614153912207037    
     1.980331972446186        0.1591726776404202    
     1.986658911655280        0.1569586635231445    
     1.992985850864373        0.1547729979718431    
     1.999312790073466        0.1526153333561831    
     2.005639729282559        0.1504853253110011    
     2.011966668491652        0.1483826327335244    
     2.018293607700746        0.1463069177794095    
     2.024620546909839        0.1442578458576393    
     2.030947486118932        0.1422350856243334    
     2.037274425328026        0.1402383089755190    
     2.043601364537119        0.1382671910389073    
     2.049928303746212        0.1363214101647197    
     2.056255242955305        0.1344006479156079    
     2.062582182164399        0.1325045890557091    
     2.068909121373492        0.1306329215388743    
     2.075236060582585        0.1287853364961148    
     2.081562999791678        0.1269615282222930    
     2.087889939000771        0.1251611941621052    
     2.094216878209865        0.1233840348953849    
     2.100543817418958        0.1216297541217611    
     2.106870756628051        0.1198980586447047    
     2.113197695837145        0.1181886583549934    
     2.119524635046238        0.1165012662136271    
     2.125851574255331        0.1148355982342213    
     2.132178513464424        0.1131913734649058    
     2.138505452673518        0.1115683139697596    
     2.144832391882611        0.1099661448098030    
     2.151159331091704        0.1083845940235763    
     2.157486270300797        0.1068233926073264    
     2.163813209509891        0.1052822744948272    
     2.170140148718984        0.1037609765368533    
     2.176467087928077        0.1022592384803366    
     2.182794027137170        0.1007768029472204    
     2.189120966346263        0.9931341541302641E-01
     2.195447905555357        0.9786882418515989E-01
     2.201774844764450        0.9644278038097413E-01
     2.208101783973543        0.9503503790560874E-01
     2.214428723182637        0.9364535342962220E-01
     2.220755662391730        0.9227348636643314E-01
     2.227082601600823        0.9091919884958649E-01
     2.233409540809916        0.8958225570986030E-01
     2.239736480019010        0.8826242445222855E-01
     2.246063419228103        0.8695947523269196E-01
     2.252390358437196        0.8567318083499635E-01
     2.258717297646289        0.8440331664724653E-01
     2.265044236855382        0.8314966063843023E-01
     2.271371176064476        0.8191199333486522E-01
     2.277698115273569        0.8069009779658241E-01
     2.284025054482662        0.7948375959365092E-01
     2.290351993691755        0.7829276678246312E-01
     2.296678932900849        0.7711690988198708E-01
     2.303005872109942        0.7595598184999346E-01
     2.309332811319035        0.7480977805927190E-01
     2.315659750528129        0.7367809627384427E-01
     2.321986689737222        0.7256073662517976E-01
     2.328313628946315        0.7145750158842713E-01
     2.334640568155408        0.7036819595866793E-01
     2.340967507364502        0.6929262682719825E-01
     2.347294446573595        0.6823060355784906E-01
     2.353621385782688        0.6718193776335050E-01
     2.359948324991781        0.6614644328174757E-01
     2.366275264200874        0.6512393615287325E-01
     2.372602203409968        0.6411423459488660E-01
     2.378929142619061        0.6311715898088004E-01
     2.385256081828154        0.6213253181556286E-01
     2.391583021037247        0.6116017771202625E-01
     2.397909960246341        0.6019992336859446E-01
     2.404236899455434        0.5925159754576685E-01
     2.410563838664527        0.5831503104325761E-01
     2.416890777873621        0.5739005667713439E-01
     2.423217717082714        0.5647650925706198E-01
     2.429544656291807        0.5557422556365643E-01
     2.435871595500900        0.5468304432594968E-01
     2.442198534709993        0.5380280619897149E-01
     2.448525473919087        0.5293335374145203E-01
     2.454852413128180        0.5207453139364492E-01
     2.461179352337273        0.5122618545527918E-01
     2.467506291546366        0.5038816406363753E-01
     2.473833230755460        0.4956031717176743E-01
     2.480160169964553        0.4874249652682717E-01
     2.486487109173646        0.4793455564856570E-01
     2.492814048382739        0.4713634980794361E-01
     2.499140987591832        0.4634773600589445E-01
     2.505467926800926        0.4556857295222709E-01
     2.511794866010019        0.4479872104467449E-01
     2.518121805219113        0.4403804234808766E-01
     2.524448744428206        0.4328640057377708E-01
     2.530775683637299        0.4254366105900352E-01
     2.537102622846392        0.4180969074661905E-01
     2.543429562055485        0.4108435816485919E-01
     2.549756501264579        0.4036753340728825E-01
     2.556083440473672        0.3965908811289691E-01
     2.562410379682765        0.3895889544635536E-01
     2.568737318891858        0.3826683007842053E-01
     2.575064258100952        0.3758276816649844E-01
     2.581391197310045        0.3690658733536526E-01
     2.587718136519138        0.3623816665804057E-01
     2.594045075728231        0.3557738663682170E-01
     2.600372014937324        0.3492412918447328E-01
     2.606698954146418        0.3427827760557404E-01
     2.613025893355511        0.3363971657802194E-01
     2.619352832564604        0.3300833213469628E-01
     2.625679771773698        0.3238401164527710E-01
     2.632006710982791        0.3176664379822312E-01
     2.638333650191884        0.3115611858290512E-01
     2.644660589400977        0.3055232727189849E-01
     2.650987528610071        0.2995516240342968E-01
     2.657314467819164        0.2936451776398191E-01
     2.663641407028257        0.2878028837105517E-01
     2.669968346237350        0.2820237045608134E-01
     2.676295285446443        0.2763066144749563E-01
     2.682622224655537        0.2706505995396125E-01
     2.688949163864630        0.2650546574774804E-01
     2.695276103073723        0.2595177974826480E-01
     2.701603042282817        0.2540390400574258E-01
     2.707929981491910        0.2486174168507227E-01
     2.714256920701003        0.2432519704978917E-01
     2.720583859910096        0.2379417544621145E-01
     2.726910799119190        0.2326858328772496E-01
     2.733237738328283        0.2274832803921804E-01
     2.739564677537376        0.2223331820166239E-01
     2.745891616746469        0.2172346329684093E-01
     2.752218555955563        0.2121867385222148E-01
     2.758545495164656        0.2071886138597331E-01
     2.764872434373749        0.2022393839212866E-01
     2.771199373582842        0.1973381832588559E-01
     2.777526312791935        0.1924841558905173E-01
     2.783853252001029        0.1876764551562862E-01
     2.790180191210122        0.1829142435753463E-01
     2.796507130419215        0.1781966927046557E-01
     2.802834069628309        0.1735229829989121E-01
     2.809161008837402        0.1688923036718897E-01
     2.815487948046495        0.1643038525590906E-01
     2.821814887255588        0.1597568359817467E-01
     2.828141826464682        0.1552504686121231E-01
     2.834468765673775        0.1507839733401354E-01
     2.840795704882868        0.1463565811412473E-01
     2.847122644091961        0.1419675309456522E-01
     2.853449583301054        0.1376160695087159E-01
     2.859776522510148        0.1333014512833198E-01
     2.866103461719241        0.1290229384171001E-01
     2.872430400928334        0.1247798038658276E-01
     2.878757340137427        0.1205713549916563E-01
     2.885084279346521        0.1163970071995615E-01
     2.891411218555614        0.1122564110709615E-01
     2.897738157764707        0.1081495978975213E-01
     2.904065096973801        0.1040771011698185E-01
     2.910392036182894        0.1000400293596938E-01
     2.916718975391987        0.9604008557250937E-02
     2.923045914601080        0.9207954202501246E-02
     2.929372853810174        0.8816118188978386E-02
     2.935699793019267        0.8428822092264636E-02
     2.942026732228360        0.8046421911622951E-02
     2.948353671437453        0.7669298996753000E-02
     2.954680610646546        0.7297851253508914E-02
     2.961007549855640        0.6932484953658623E-02
     2.967334489064733        0.6573607331387326E-02
     2.973661428273826        0.6221620049499242E-02
     2.979988367482919        0.5876913551538251E-02
     2.986315306692013        0.5539862273530210E-02
     2.992642245901106        0.5210820663593125E-02
     2.998969185110199        0.4890119943877107E-02
     3.005296124319293        0.4578065543235295E-02
     3.011623063528386        0.4274935127925749E-02
     3.017950002737479        0.3980977159567356E-02
     3.024276941946572        0.3696409913198389E-02
     3.030603881155665        0.3421420892732242E-02
     3.036930820364759        0.3156166585742245E-02
     3.043257759573852        0.2900772503916855E-02
     3.049584698782945        0.2655333459359679E-02
     3.055911637992038        0.2419914029865944E-02
     3.062238577201132        0.2194549168009371E-02
     3.068565516410225        0.1979244908823815E-02
     3.074892455619318        0.1773979128226940E-02
     3.081219394828411        0.1578702297735363E-02
     3.087546334037504        0.1393338167960382E-02
     3.093873273246598        0.1217784289258488E-02
     3.100200212455691        0.1051912233779835E-02
     3.106527151664785        0.8955673007302033E-03
     3.112854090873878        0.7485673261329005E-03
     3.119181030082971        0.6106998863710762E-03
     3.125507969292064        0.4817164404087221E-03
     3.131834908501157        0.3613200970126719E-03
     3.138161847710251        0.2491383102701234E-03
     3.144488786919344        0.1446529303512590E-03
     3.150815726128437        0.4695221608006554E-04
     3.157142665337530         0.000000000000000    
  0  4  1  0  2.000000   #orbital l, n, z, is_polarized, population
 500    0.1689120850448809E-01     8.428713043739558     # npts, delta, cutoff
     0.000000000000000        0.2443222729167281    
    0.1689120850448809E-01    0.2446613921150549    
    0.3378241700897618E-01    0.2456889847145221    