<preamble>

<basis_specs>
===============================================================================
Se                   Z=  34    Mass=  78.971        Charge= 0.17977+309
Lmxo=2 Lmxkb= 2    BasisType=split      Semic=T
L=0  Nsemic=0  Cnfigmx=4
          i=1  nzeta=2  polorb=0  (4s)
            splnorm:   0.15000    
               vcte:    40.000    
               rinn:    4.3336    
               qcoe:    0.0000    
               qyuk:    0.0000    
               qwid:   0.10000E-01
                rcs:    4.8103      3.2601    
            lambdas:    1.0000      1.0000    
L=1  Nsemic=0  Cnfigmx=4
          i=1  nzeta=2  polorb=0  (4p)  (to be polarized non-perturbatively)
            splnorm:   0.15000    
               vcte:    40.000    
               rinn:    5.5893    
               qcoe:    0.0000    
               qyuk:    0.0000    
               qwid:   0.10000E-01
                rcs:    6.2042      4.2823    
            lambdas:    1.0000      1.0000    
L=2  Nsemic=1  Cnfigmx=4
          i=1  nzeta=1  polorb=0  (3d)  (semicore shell)
            splnorm:   0.15000    
               vcte:    40.000    
               rinn:    2.2422    
               qcoe:    0.0000    
               qyuk:    0.0000    
               qwid:   0.10000E-01
                rcs:    2.4913    
            lambdas:    1.0000    
          i=2  nzeta=1  polorb=0  (4d)  (non-perturbative polarization shell)
            splnorm:   0.15000    
               vcte:    40.000    
               rinn:    5.5893    
               qcoe:    0.0000    
               qyuk:    0.0000    
               qwid:   0.10000E-01
                rcs:    6.2042    
            lambdas:    1.0000    
-------------------------------------------------------------------------------
L=0  Nkbl=1  erefs: 0.17977+309
L=1  Nkbl=1  erefs: 0.17977+309
L=2  Nkbl=2  erefs: 0.17977+309 0.17977+309
===============================================================================
</basis_specs>

<pseudopotential_header>
 Se pw nrl pcec
 ONCVPSP-3.2018-03-09Hamann's oncvpsp                        
 4s 2.00  r= 1.82/4p 4.00  r= 1.50/3d10.00  r= 1.91/                    3d:4s:4p:
</pseudopotential_header>
</preamble>
Se                            # Symbol
Se                            # Label
   34                         # Atomic number
     16.0000000000                             # Valence charge
     78.9710000000        # Mass 
     261.778558597        # Self energy 
   2   6                      # Lmax for basis, no. of nl orbitals 
   2   6                      # Lmax for projectors, no. of nl KB projectors
# PAOs:__________________________
  0  4  1  0  2.000000   #orbital l, n, z, is_polarized, population
 500    0.9639818392391289E-02     4.810269377803253     # npts, delta, cutoff
     0.000000000000000        0.5712584415158767E-01
    0.9639818392391289E-02    0.5722769731015846E-01
    0.1927963678478258E-01    0.5753775205167152E-01
    0.2891945517717387E-01    0.5805428518410819E-01
    0.3855927356956516E-01    0.5877695739563069E-01
    0.4819909196195644E-01    0.5970529374764032E-01
    0.5783891035434774E-01    0.6083868304301122E-01
    0.6747872874673902E-01    0.6217637732591737E-01
    0.7711854713913031E-01    0.6371749132390386E-01
    0.8675836553152161E-01    0.6546100182017515E-01
    0.9639818392391289E-01    0.6740574696327557E-01
    0.1060380023163042        0.6955042552609320E-01
    0.1156778207086955        0.7189359612837198E-01
    0.1253176391010868        0.7443367643850905E-01
    0.1349574574934780        0.7716894237170949E-01
    0.1445972758858693        0.8009752730267895E-01
    0.1542370942782606        0.8321742131196462E-01
    0.1638769126706519        0.8652647048581949E-01
    0.1735167310630432        0.9002237629005422E-01
    0.1831565494554345        0.9370269503875933E-01
    0.1927963678478258        0.9756483747901372E-01
    0.2024361862402171        0.1016060685127568    
    0.2120760046326084        0.1058235070768759    
    0.2217158230249996        0.1102141262022588    
    0.2313556414173910        0.1147747532720805    
    0.2409954598097822        0.1195020704989415    
    0.2506352782021735        0.1243926156396425    
    0.2602750965945648        0.1294427829653979    
    0.2699149149869561        0.1346488245041345    
    0.2795547333793474        0.1400068515702302    
    0.2891945517717387        0.1455128365956081    
    0.2988343701641299        0.1511626152745242    
    0.3084741885565213        0.1569518890327093    
    0.3181140069489126        0.1628762278297145    
    0.3277538253413038        0.1689310733014341    
    0.3373936437336951        0.1751117422477825    
    0.3470334621260864        0.1814134304684850    
    0.3566732805184777        0.1878312169478288    
    0.3663130989108690        0.1943600683870978    
    0.3759529173032603        0.2009948440812592    
    0.3855927356956516        0.2077303011343028    
    0.3952325540880429        0.2145611000054919    
    0.4048723724804342        0.2214818103766466    
    0.4145121908728254        0.2284869173284993    
    0.4241520092652167        0.2355708278121277    
    0.4337918276576080        0.2427278773995060    
    0.4434316460499993        0.2499523372953447    
    0.4530714644423906        0.2572384215905976    
    0.4627112828347819        0.2645802947363583    
    0.4723511012271732        0.2719720792153177    
    0.4819909196195645        0.2794078633865440    
    0.4916307380119557        0.2868817094780813    
    0.5012705564043470        0.2943876617007605    
    0.5109103747967383        0.3019197544556522    
    0.5205501931891297        0.3094720206068353    
    0.5301900115815209        0.3170384997905314    
    0.5398298299739122        0.3246132467312505    
    0.5494696483663035        0.3321903395353445    
    0.5591094667586948        0.3397638879323168    
    0.5687492851510860        0.3473280414343600    
    0.5783891035434774        0.3548769973849297    
    0.5880289219358686        0.3624050088676407    
    0.5976687403282599        0.3699063924474653    
    0.6073085587206513        0.3773755357170610    
    0.6169483771130425        0.3848069046220848    
    0.6265881955054338        0.3921950505405269    
    0.6362280138978251        0.3995346170924394    
    0.6458678322902164        0.4068203466579120    
    0.6555076506826076        0.4140470865827622    
    0.6651474690749990        0.4212097950531520    
    0.6747872874673903        0.4283035466221580    
    0.6844271058597815        0.4353235373733136    
    0.6940669242521729        0.4422650897080971    
    0.7037067426445641        0.4491236567465060    
    0.7133465610369554        0.4558948263319311    
    0.7229863794293467        0.4625743246337896    
    0.7326261978217380        0.4691580193435377    
    0.7422660162141292        0.4756419224619162    
    0.7519058346065206        0.4820221926774945    
    0.7615456529989119        0.4882951373387525    
    0.7711854713913031        0.4944572140240808    
    0.7808252897836945        0.5005050317161887    
    0.7904651081760857        0.5064353515894249    
    0.8001049265684770        0.5122450874204472    
    0.8097447449608683        0.5179313056345681    
    0.8193845633532596        0.5234912250017875    
    0.8290243817456509        0.5289222159982209    
    0.8386642001380422        0.5342217998500541    
    0.8483040185304335        0.5393876472785809    
    0.8579438369228247        0.5444175769660491    
    0.8675836553152161        0.5493095537631177    
    0.8772234737076073        0.5540616866596233    
    0.8868632920999986        0.5586722265410804    
    0.8965031104923900        0.5631395637539180    
    0.9061429288847812        0.5674622255028182    
    0.9157827472771725        0.5716388731037813    
    0.9254225656695638        0.5756682991165413    
    0.9350623840619551        0.5795494243798651    
    0.9447022024543463        0.5832812949729616    
    0.9543420208467376        0.5868630791257476    
    0.9639818392391289        0.5902940641001321    
    0.9736216576315202        0.5935736530636676    
    0.9832614760239115        0.5967013619760255    
    0.9929012944163028        0.5996768165076644    
     1.002541112808694        0.6024997490089034    
     1.012180931201085        0.6051699955462700    
     1.021820749593477        0.6076874930215997    
     1.031460567985868        0.6100522763878605    
     1.041100386378259        0.6122644759740415    
     1.050740204770650        0.6143243149298355    
     1.060380023163042        0.6162321067990789    
     1.070019841555433        0.6179882532291866    
     1.079659659947824        0.6195932418219943    
     1.089299478340216        0.6210476441296449    
     1.098939296732607        0.6223521137973368    
     1.108579115124998        0.6235073848529575    
     1.118218933517390        0.6245142701418795    
     1.127858751909781        0.6253736599034574    
     1.137498570302172        0.6260865204841174    
     1.147138388694563        0.6266538931803201    
     1.156778207086955        0.6270768932031685    
     1.166418025479346        0.6273567087550115    
     1.176057843871737        0.6274946002070666    
     1.185697662264129        0.6274918993658792    
     1.195337480656520        0.6273500088153479    
     1.204977299048911        0.6270704013200966    
     1.214617117441303        0.6266546192751400    
     1.224256935833694        0.6261042741861265    
     1.233896754226085        0.6254210461639094    
     1.243536572618476        0.6246066834168188    
     1.253176391010868        0.6236630017237821    
     1.262816209403259        0.6225918838713926    
     1.272456027795650        0.6213952790380879    
     1.282095846188041        0.6200752021088775    
     1.291735664580433        0.6186337329044321    
     1.301375482972824        0.6170730153089138    
     1.311015301365215        0.6153952562816124    
     1.320655119757607        0.6136027247382929    
     1.330294938149998        0.6116977502893141    
     1.339934756542389        0.6096827200706063    
     1.349574574934781        0.6075600765477188    
     1.359214393327172        0.6053323194496045    
     1.368854211719563        0.6030020026397170    
     1.378494030111954        0.6005717320959428    
     1.388133848504346        0.5980441635615269    
     1.397773666896737        0.5954219999833715    
     1.407413485289128        0.5927079887694376    
     1.417053303681520        0.5899049188458833    
     1.426693122073911        0.5870156175156968    
     1.436332940466302        0.5840429471222843    
     1.445972758858693        0.5809898015232228    
     1.455612577251085        0.5778591023810520    
     1.465252395643476        0.5746537952796721    
     1.474892214035867        0.5713768456765144    
     1.484532032428258        0.5680312347022262    
     1.494171850820650        0.5646199548210915    
     1.503811669213041        0.5611460053668382    
     1.513451487605432        0.5576123879697846    
     1.523091305997824        0.5540221018924756    
     1.532731124390215        0.5503781392921098    
     1.542370942782606        0.5466834804289455    
     1.552010761174998        0.5429410888408397    
     1.561650579567389        0.5391539065047355    
     1.571290397959780        0.5353248490064816    
     1.580930216352171        0.5314568007408471    
     1.590570034744563        0.5275526101638188    
     1.600209853136954        0.5236150851194211    
     1.609849671529345        0.5196469882632933    
     1.619489489921737        0.5156510326050534    
     1.629129308314128        0.5116298771911534    
     1.638769126706519        0.5075861229494514    
     1.648408945098911        0.5035223087161036    
     1.658048763491302        0.4994409074645939    
     1.667688581883693        0.4953443227558194    
     1.677328400276084        0.4912348854271102    
     1.686968218668476        0.4871148505368845    
     1.696608037060867        0.4829863945803712    
     1.706247855453258        0.4788516129904397    
     1.715887673845649        0.4747125179360840    
     1.725527492238041        0.4705710364295446    
     1.735167310630432        0.4664290087513988    
     1.744807129022823        0.4622881872012294    
     1.754446947415215        0.4581502351797290    
     1.764086765807606        0.4540167265727203    
     1.773726584199997        0.4498891454289505    
     1.783366402592389        0.4457688864832645    
     1.793006220984780        0.4416572560217563    
     1.802646039377171        0.4375554707983638    
     1.812285857769562        0.4334646574569810    
     1.821925676161954        0.4293858580642833    
     1.831565494554345        0.4253200415552609    
     1.841205312946736        0.4212681167205831    
     1.850845131339128        0.4172309447506931    
     1.860484949731519        0.4132093485529637    
     1.870124768123910        0.4092041146174448    
     1.879764586516301        0.4052159916744575    
     1.889404404908693        0.4012456911693445    
     1.899044223301084        0.3972938891343266    
     1.908684041693475        0.3933612276565535    
     1.918323860085867        0.3894483158860952    
     1.927963678478258        0.3855557311281027    
     1.937603496870649        0.3816840199208052    
     1.947243315263040        0.3778336990815057    
     1.956883133655432        0.3740052567212630    
     1.966522952047823        0.3701991532295865    
     1.976162770440214        0.3664158222299291    
     1.985802588832606        0.3626556715067495    
     1.995442407224997        0.3589190839049218    
     2.005082225617388        0.3552064182022351    
     2.014722044009779        0.3515180099557011    
     2.024361862402171        0.3478541723223836    
     2.034001680794562        0.3442151968554500    
     2.043641499186953        0.3406013542761162    
     2.053281317579345        0.3370128952221469    
     2.062921135971736        0.3334500509735573    
     2.072560954364127        0.3299130341561359    
     2.082200772756519        0.3264020394234214    
     2.091840591148910        0.3229172441177134    
     2.101480409541301        0.3194588089107087    
     2.111120227933692        0.3160268784243344    
     2.120760046326084        0.3126215818323301    
     2.130399864718475        0.3092430334431205    
     2.140039683110866        0.3058913332645069    
     2.149679501503257        0.3025665675506914    
     2.159319319895649        0.2992688093321369    
     2.168959138288040        0.2959981189287460    
     2.178598956680431        0.2927545444468412    
     2.188238775072822        0.2895381222604066    
     2.197878593465214        0.2863488774770427    
     2.207518411857605        0.2831868243890739    
     2.217158230249996        0.2800519669102385    
     2.226798048642388        0.2769442989983776    
     2.236437867034779        0.2738638050645272    
     2.246077685427170        0.2708104603688152    
     2.255717503819562        0.2677842314035356    
     2.265357322211953        0.2647850762637917    
     2.274997140604344        0.2618129450060565    
     2.284636958996736        0.2588677799950154    
     2.294276777389127        0.2559495162390350    
     2.303916595781518        0.2530580817145878    
     2.313556414173910        0.2501933976799690    
     2.323196232566301        0.2473553789786149    
     2.332836050958692        0.2445439343323385    
     2.342475869351083        0.2417589666247774    
     2.352115687743475        0.2390003731753522    
     2.361755506135866        0.2362680460040155    
     2.371395324528257        0.2335618720870685    
     2.381035142920648        0.2308817336043192    
     2.390674961313040        0.2282275081778337    
     2.400314779705431        0.2255990691025465    
     2.409954598097822        0.2229962855689654    
     2.419594416490213        0.2204190228782224    
     2.429234234882605        0.2178671426496907    
     2.438874053274996        0.2153405030214103    
     2.448513871667387        0.2128389588435255    
     2.458153690059779        0.2103623618649650    
     2.467793508452170        0.2079105609135572    
     2.477433326844561        0.2054834020697955    
     2.487073145236953        0.2030807288344403    
     2.496712963629344        0.2007023822901559    
     2.506352782021735        0.1983482012573612    
     2.515992600414127        0.1960180224444764    
     2.525632418806518        0.1937116805927452    
     2.535272237198909        0.1914290086157902    
     2.544912055591301        0.1891698377340807    
     2.554551873983692        0.1869339976044598    
     2.564191692376083        0.1847213164448956    
     2.573831510768474        0.1825316211546009    
     2.583471329160866        0.1803647374296714    
     2.593111147553257        0.1782204898743832    
     2.602750965945648        0.1760987021082843    
     2.612390784338039        0.1739991968692218    
     2.622030602730431        0.1719217961124252    
     2.631670421122822        0.1698663211057773    
     2.641310239515213        0.1678325925213947    
     2.650950057907604        0.1658204305236346    
     2.660589876299996        0.1638296548536431    
     2.670229694692387        0.1618600849105624    
     2.679869513084778        0.1599115398294900    
     2.689509331477170        0.1579838385563156    
     2.699149149869561        0.1560767999195228    
     2.708788968261952        0.1541902426990589    
     2.718428786654344        0.1523239856923689    
     2.728068605046735        0.1504778477776798    
     2.737708423439126        0.1486516479746443    
     2.747348241831518        0.1468452055024438    
     2.756988060223909        0.1450583398353221    
     2.766627878616300        0.1432908707557552    
     2.776267697008691        0.1415426184053730    
     2.785907515401083        0.1398134033336131    
     2.795547333793474        0.1381030465441672    
     2.805187152185865        0.1364113695393481    
     2.814826970578256        0.1347381943624319    
     2.824466788970648        0.1330833436380502    
     2.834106607363039        0.1314466406106944    
     2.843746425755430        0.1298279091813934    
     2.853386244147821        0.1282269739426261    
     2.863026062540213        0.1266436602115329    
     2.872665880932604        0.1250777940614823    
     2.882305699324995        0.1235292023520502    
     2.891945517717387        0.1219977127574638    
     2.901585336109778        0.1204831537935673    
     2.911225154502169        0.1189853548433576    
     2.920864972894561        0.1175041461811423    
     2.930504791286952        0.1160393589953670    
     2.940144609679343        0.1145908254101554    
     2.949784428071735        0.1131583785056158    
     2.959424246464126        0.1117418523369490    
     2.969064064856517        0.1103410819524051    
     2.978703883248909        0.1089559034101298    
     2.988343701641300        0.1075861537939375    
     2.997983520033691        0.1062316712280531    
     3.007623338426082        0.1048922948908578    
     3.017263156818474        0.1035678650276758    
     3.026902975210865        0.1022582229626365    
     3.036542793603256        0.1009632111096454    
     3.046182611995647        0.9968267298249955E-01
     3.055822430388039        0.9841645320417507E-01
     3.065462248780430        0.9716439751532051E-01
     3.075102067172821        0.9592635278198537E-01
     3.084741885565212        0.9470216700261042E-01
     3.094381703957604        0.9349168931431093E-01
     3.104021522349995        0.9229476999847766E-01
     3.113661340742386        0.9111126048572181E-01
     3.123301159134778        0.8994101336019110E-01
     3.132940977527169        0.8878388236327740E-01
     3.142580795919560        0.8763972239674425E-01
     3.152220614311952        0.8650838952529394E-01
     3.161860432704343        0.8538974097859778E-01
     3.171500251096734        0.8428363515281011E-01
     3.181140069489126        0.8318993161158658E-01
     3.190779887881517        0.8210849108662882E-01
     3.200419706273908        0.8103917547777093E-01
     3.210059524666300        0.7998184785263046E-01
     3.219699343058691        0.7893637244584017E-01
     3.229339161451082        0.7790261465787719E-01
     3.238978979843473        0.7688044105350884E-01
     3.248618798235865        0.7586971935986847E-01
     3.258258616628256        0.7487031846417980E-01
     3.267898435020647        0.7388210841114469E-01
     3.277538253413038        0.7290496040000584E-01
     3.287178071805430        0.7193874678130358E-01
     3.296817890197821        0.7098334105333726E-01
     3.306457708590212        0.7003861785834502E-01
     3.316097526982603        0.6910445297841589E-01
     3.325737345374995        0.6818072333114507E-01
     3.335377163767386        0.6726730696504570E-01
     3.345016982159777        0.6636408305472907E-01
     3.354656800552169        0.6547093189586113E-01
     3.364296618944560        0.6458773489991113E-01
     3.373936437336951        0.6371437458869939E-01
     3.383576255729343        0.6285073458875363E-01
     3.393216074121734        0.6199669962548760E-01
     3.402855892514125        0.6115215551720661E-01
     3.412495710906517        0.6031698916895245E-01
     3.422135529298908        0.5949108856619434E-01
     3.431775347691299        0.5867434276837587E-01
     3.441415166083690        0.5786664190232466E-01
     3.451054984476082        0.5706787715553362E-01
     3.460694802868473        0.5627794076932058E-01
     3.470334621260864        0.5549672603187408E-01
     3.479974439653255        0.5472412727119275E-01
     3.489614258045647        0.5396003984792271E-01
     3.499254076438038        0.5320436014810321E-01
     3.508893894830429        0.5245698557582408E-01
     3.518533713222820        0.5171781454580082E-01
     3.528173531615212        0.5098674647587516E-01
     3.537813350007603        0.5026368177944584E-01
     3.547453168399994        0.4954852185783336E-01
     3.557092986792386        0.4884116909258608E-01
     3.566732805184777        0.4814152683773325E-01
     3.576372623577168        0.4744949941198514E-01
     3.586012441969560        0.4676499209089102E-01
     3.595652260361951        0.4608791109895592E-01
     3.605292078754342        0.4541816360171971E-01
     3.614931897146734        0.4475565769780561E-01
     3.624571715539125        0.4410030241093969E-01
     3.634211533931516        0.4345200768194554E-01
     3.643851352323908        0.4281068436071923E-01
     3.653491170716299        0.4217624419818562E-01
     3.663130989108690        0.4154859983824114E-01
     3.672770807501081        0.4092766480968662E-01
     3.682410625893473        0.4031335351815114E-01
     3.692050444285864        0.3970558123801118E-01
     3.701690262678255        0.3910426410430971E-01
     3.711330081070646        0.3850931910467340E-01
     3.720969899463038        0.3792066407123510E-01
     3.730609717855429        0.3733821767256210E-01
     3.740249536247820        0.3676189940559119E-01
     3.749889354640211        0.3619162958757623E-01
     3.759529173032603        0.3562732934804743E-01
     3.769168991424994        0.3506892062078478E-01
     3.778808809817385        0.3451632613581000E-01
     3.788448628209776        0.3396946941139566E-01
     3.798088446602168        0.3342827474609551E-01
     3.807728264994559        0.3289266721079686E-01
     3.817368083386950        0.3236257264079685E-01
     3.827007901779342        0.3183791762790414E-01
     3.836647720171733        0.3131862951256761E-01
     3.846287538564124        0.3080463637603302E-01
     3.855927356956516        0.3029586703252994E-01
     3.865567175348907        0.2979225102148907E-01
     3.875206993741298        0.2929371859979191E-01
     3.884846812133690        0.2880020073405392E-01
     3.894486630526081        0.2831162909294186E-01
     3.904126448918472        0.2782793603952603E-01
     3.913766267310864        0.2734905462367032E-01
     3.923406085703255        0.2687491857445759E-01
     3.933045904095646        0.2640546229265462E-01
     3.942685722488037        0.2594062084321565E-01
     3.952325540880429        0.2548032994782507E-01
     3.961965359272820        0.2502452597748112E-01
     3.971605177665211        0.2457314594512016E-01
     3.981244996057602        0.2412612749828304E-01
     3.990884814449994        0.2368340891182328E-01
     4.000524632842385        0.2324492908065798E-01
     4.010164451234776        0.2281062751256268E-01
     4.019804269627167        0.2238044432100875E-01
     4.029444088019559        0.2195432021804562E-01
     4.039083906411951        0.2153219650722775E-01
     4.048723724804342        0.2111401507658554E-01
     4.058363543196733        0.2069971839164210E-01
     4.068003361589124        0.2028924948847482E-01
     4.077643179981515        0.1988255196682332E-01
     4.087282998373906        0.1947956998324256E-01
     4.096922816766298        0.1908024824430204E-01
     4.106562635158689        0.1868453199983236E-01
     4.116202453551081        0.1829236703621580E-01
     4.125842271943472        0.1790369966972613E-01
     4.135482090335863        0.1751847673991239E-01
     4.145121908728254        0.1713664560303110E-01
     4.154761727120646        0.1675815412552429E-01
     4.164401545513037        0.1638295067754419E-01
     4.174041363905428        0.1601098412652465E-01
     4.183681182297819        0.1564220383079880E-01
     4.193321000690211        0.1527655963326460E-01
     4.202960819082602        0.1491400185509467E-01
     4.212600637474994        0.1455448128949466E-01
     4.222240455867385        0.1419794919550678E-01
     4.231880274259776        0.1384435729185955E-01
     4.241520092652167        0.1349365775086430E-01
     4.251159911044558        0.1314580319235657E-01
     4.260799729436950        0.1280074667768453E-01
     4.270439547829342        0.1245844170374155E-01
     4.280079366221733        0.1211884219704559E-01
     4.289719184614124        0.1178190250786277E-01
     4.299359003006515        0.1144757740437633E-01
     4.308998821398906        0.1111582206690028E-01
     4.318638639791297        0.1078659208213749E-01
     4.328278458183689        0.1045984343748256E-01
     4.337918276576080        0.1013553251536789E-01
     4.347558094968472        0.9813616087654117E-02
     4.357197913360863        0.9494051310064444E-02
     4.366837731753254        0.9176795718334541E-02
     4.376477550145645        0.8861807317738234E-02
     4.386117368538037        0.8549045733811860E-02
     4.395757186930428        0.8238477285966829E-02
     4.405397005322819        0.7930086074270310E-02
     4.415036823715210        0.7623888911707745E-02
     4.424676642107602        0.7319949451906753E-02
     4.434316460499993        0.7018387896353766E-02
     4.443956278892385        0.6719384951262703E-02
     4.453596097284776        0.6423180447648002E-02
     4.463235915677167        0.6130067862114312E-02
     4.472875734069558        0.5840386140613658E-02
     4.482515552461949        0.5554510059825408E-02
     4.492155370854340        0.5272840080749302E-02
     4.501795189246732        0.4995792369425434E-02
     4.511435007639124        0.4723789425368948E-02
     4.521074826031515        0.4457251579294024E-02
     4.530714644423906        0.4196589492912093E-02
     4.540354462816297        0.3942197705174183E-02
     4.549994281208688        0.3694449211252727E-02
     4.559634099601080        0.3453691024329219E-02
     4.569273917993471        0.3220240649245919E-02
     4.578913736385863        0.2994383386407852E-02
     4.588553554778254        0.2776370380466213E-02
     4.598193373170645        0.2566417328819477E-02
     4.607833191563036        0.2364703768125310E-02
     4.617473009955428        0.2171372861675212E-02
     4.627112828347819        0.1986531615844952E-02
     4.636752646740210        0.1810251459372177E-02
     4.646392465132601        0.1642569124539241E-02
     4.656032283524993        0.1483487774175410E-02
     4.665672101917384        0.1332978322462996E-02
     4.675311920309776        0.1190980900543644E-02
     4.684951738702167        0.1057406419431954E-02
     4.694591557094558        0.9321381820748524E-03
     4.704231375486949        0.8150334923247629E-03
     4.713871193879340        0.7059251989365921E-03
     4.723511012271731        0.6046230932365403E-03
     4.733150830664123        0.5109150414350350E-03
     4.742790649056515        0.4245676588070739E-03
     4.752430467448906        0.3453261826285110E-03
     4.762070285841297        0.2729128737485740E-03
     4.771710104233688        0.2070224979477707E-03
     4.781349922626079        0.1473113376853165E-03
     4.790989741018471        0.9336941206568109E-04
     4.800629559410862        0.4463662791059966E-04
     4.810269377803253         0.000000000000000    
  0  4  2  0  0.000000   #orbital l, n, z, is_polarized, population
 500    0.6533327141803027E-02     3.260130243759710     # npts, delta, cutoff
     0.000000000000000       -0.3462418257132588    
    0.6533327141803027E-02   -0.3461546479380679    
    0.1306665428360605E-01   -0.3458846168634320    
    0.1959998142540908E-01   -0.3454346512165210    
    0.2613330856721211E-01   -0.3448048856858300    
    0.3266663570901514E-01   -0.3439955075964082    
    0.3919996285081816E-01   -0.3430067577044957    
    0.4573328999262119E-01   -0.3418389303880170    
    0.5226661713442422E-01   -0.3404923737770916    
    0.5879994427622724E-01   -0.3389674898842657    