<preamble>

<basis_specs>
===============================================================================
Sn                   Z=  50    Mass=  118.71        Charge= 0.17977+309
Lmxo=2 Lmxkb= 2    BasisType=split      Semic=T
L=0  Nsemic=0  Cnfigmx=5
          i=1  nzeta=2  polorb=0  (5s)
            splnorm:   0.15000    
               vcte:    40.000    
               rinn:    5.3860    
               qcoe:    0.0000    
               qyuk:    0.0000    
               qwid:   0.10000E-01
                rcs:    5.9844      4.2015    
            lambdas:    1.0000      1.0000    
L=1  Nsemic=0  Cnfigmx=5
          i=1  nzeta=2  polorb=0  (5p)  (to be polarized non-perturbatively)
            splnorm:   0.15000    
               vcte:    40.000    
               rinn:    7.1150    
               qcoe:    0.0000    
               qyuk:    0.0000    
               qwid:   0.10000E-01
                rcs:    7.9056      5.6807    
            lambdas:    1.0000      1.0000    
L=2  Nsemic=1  Cnfigmx=5
          i=1  nzeta=1  polorb=0  (4d)  (semicore shell)
            splnorm:   0.15000    
               vcte:    40.000    
               rinn:    3.1697    
               qcoe:    0.0000    
               qyuk:    0.0000    
               qwid:   0.10000E-01
                rcs:    3.5183    
            lambdas:    1.0000    
          i=2  nzeta=1  polorb=0  (5d)  (non-perturbative polarization shell)
            splnorm:   0.15000    
               vcte:    40.000    
               rinn:    7.1221    
               qcoe:    0.0000    
               qyuk:    0.0000    
               qwid:   0.10000E-01
                rcs:    7.9056    
            lambdas:    1.0000    
-------------------------------------------------------------------------------
L=0  Nkbl=1  erefs: 0.17977+309
L=1  Nkbl=1  erefs: 0.17977+309
L=2  Nkbl=2  erefs: 0.17977+309 0.17977+309
===============================================================================
</basis_specs>

<pseudopotential_header>
 Sn pw nrl pcec
 ONCVPSP-3.2018-03-09Hamann's oncvpsp                        
 5s 2.00  r= 2.27/5p 2.00  r= 2.62/4d10.00  r= 1.86/                    4d:5s:5p:
</pseudopotential_header>
</preamble>
Sn                            # Symbol
Sn                            # Label
   50                         # Atomic number
     14.0000000000                             # Valence charge
     118.710000000        # Mass 
     172.709828499        # Self energy 
   2   6                      # Lmax for basis, no. of nl orbitals 
   2   6                      # Lmax for projectors, no. of nl KB projectors
# PAOs:__________________________
  0  5  1  0  2.000000   #orbital l, n, z, is_polarized, population
 500    0.1199283499133529E-01     5.984424660676308     # npts, delta, cutoff
     0.000000000000000        0.3131604673187783E-01
    0.1199283499133529E-01    0.3138280824438421E-01
    0.2398566998267057E-01    0.3158519208346461E-01
    0.3597850497400586E-01    0.3192219947479590E-01
    0.4797133996534115E-01    0.3239338210528431E-01
    0.5996417495667643E-01    0.3299811442577146E-01
    0.7195700994801173E-01    0.3373559544580734E-01
    0.8394984493934701E-01    0.3460485114301371E-01
    0.9594267993068230E-01    0.3560473740031732E-01
    0.1079355149220176        0.3673394344984560E-01
    0.1199283499133529        0.3799099580692758E-01
    0.1319211849046882        0.3937426267683920E-01
    0.1439140198960235        0.4088195881528933E-01
    0.1559068548873587        0.4251215082187563E-01
    0.1678996898786940        0.4426276284400912E-01
    0.1798925248700293        0.4613158266715090E-01
    0.1918853598613646        0.4811626816565433E-01
    0.2038781948526999        0.5021435408705998E-01
    0.2158710298440352        0.5242325914136794E-01
    0.2278638648353705        0.5474029336561362E-01
    0.2398566998267057        0.5716266573300883E-01
    0.2518495348180410        0.5968749197498573E-01
    0.2638423698093763        0.6231180258370164E-01
    0.2758352048007116        0.6503255096192763E-01
    0.2878280397920469        0.6784662168676955E-01
    0.2998208747833822        0.7075083885334126E-01
    0.3118137097747175        0.7374197446434436E-01
    0.3238065447660528        0.7681675683149533E-01
    0.3357993797573881        0.7997187895488940E-01
    0.3477922147487233        0.8320400684668841E-01
    0.3597850497400586        0.8650978776597817E-01
    0.3717778847313939        0.8988585833224821E-01
    0.3837707197227292        0.9332885248570207E-01
    0.3957635547140645        0.9683540926350596E-01
    0.4077563897053998        0.1004021803621260    
    0.4197492246967350        0.1040258374570777    
    0.4317420596880703        0.1077030792527149    
    0.4437348946794056        0.1114306382361128    
    0.4557277296707409        0.1152052871106359    
    0.4677205646620762        0.1190238448864365    
    0.4797133996534115        0.1228831826068668    
    0.4917062346447468        0.1267802286916371    
    0.5036990696360820        0.1307119738794598    
    0.5156919046274173        0.1346754757549188    
    0.5276847396187526        0.1386678628463536    
    0.5396775746100879        0.1426863382836527    
    0.5516704096014232        0.1467281830070038    
    0.5636632445927585        0.1507907585198230    
    0.5756560795840938        0.1548715091812892    
    0.5876489145754291        0.1589679640361244    
    0.5996417495667644        0.1630777381814661    
    0.6116345845580996        0.1671985336728908    
    0.6236274195494349        0.1713281399738124    
    0.6356202545407702        0.1754644339546478    
    0.6476130895321055        0.1796053794502294    
    0.6596059245234408        0.1837490263860195    
    0.6715987595147761        0.1878935094856583    
    0.6835915945061114        0.1920370465743166    
    0.6955844294974467        0.1961779364941509    
    0.7075772644887820        0.2003145566499366    
    0.7195700994801172        0.2044453602045886    
    0.7315629344714525        0.2085688729458534    
    0.7435557694627878        0.2126836898468865    
    0.7555486044541231        0.2167884713447627    
    0.7675414394454584        0.2208819393621612    
    0.7795342744367937        0.2249628730985440    
    0.7915271094281290        0.2290301046180785    
    0.8035199444194643        0.2330825142623614    
    0.8155127794107996        0.2371190259166446    
    0.8275056144021348        0.2411386021588000    
    0.8394984493934701        0.2451402393206001    
    0.8514912843848054        0.2491229624911326    
    0.8634841193761407        0.2530858204922256    
    0.8754769543674760        0.2570278808556883    
    0.8874697893588113        0.2609482248319521    
    0.8994626243501466        0.2648459424593186    
    0.9114554593414819        0.2687201277225186    
    0.9234482943328172        0.2725698738286326    
    0.9354411293241524        0.2763942686276317    
    0.9474339643154877        0.2801923902038807    
    0.9594267993068230        0.2839633026639027    
    0.9714196342981583        0.2877060521445298    
    0.9834124692894936        0.2914196630642880    
    0.9954053042808289        0.2951031346394657    
     1.007398139272164        0.2987554376848365    
     1.019390974263499        0.3023755117174037    
     1.031383809254835        0.3059622623798813    
     1.043376644246170        0.3095145591988629    
     1.055369479237505        0.3130312336908275    
     1.067362314228841        0.3165110778272479    
     1.079355149220176        0.3199528428681502    
     1.091347984211511        0.3233552385715082    
     1.103340819202846        0.3267169327838610    
     1.115333654194182        0.3300365514155378    
     1.127326489185517        0.3333126788018404    
     1.139319324176852        0.3365438584495285    
     1.151312159168188        0.3397285941659165    
     1.163304994159523        0.3428653515659302    
     1.175297829150858        0.3459525599504784    
     1.187290664142193        0.3489886145475984    
     1.199283499133529        0.3519718791059379    
     1.211276334124864        0.3549006888283374    
     1.223269169116199        0.3577733536315174    
     1.235262004107535        0.3605881617162052    
     1.247254839098870        0.3633433834304284    
     1.259247674090205        0.3660372754072321    
     1.271240509081540        0.3686680849566309    
     1.283233344072876        0.3712340546903427    
     1.295226179064211        0.3737334273566357    
     1.307219014055546        0.3761644508615525    
     1.319211849046882        0.3785253834518247    
     1.331204684038217        0.3808144990339471    
     1.343197519029552        0.3830300926031933    
     1.355190354020887        0.3851704857557671    
     1.367183189012223        0.3872340322568552    
     1.379176024003558        0.3892191236370444    
     1.391168858994893        0.3911241947893915    
     1.403161693986229        0.3929477295394120    
     1.415154528977564        0.3946882661603557    
     1.427147363968899        0.3963444028063867    
     1.439140198960234        0.3979148028366518    
     1.451133033951570        0.3993981999126113    
     1.463125868942905        0.4007933998334734    
     1.475118703934240        0.4020992875669400    
     1.487111538925576        0.4033148338789025    
     1.499104373916911        0.4044390990817121    
     1.511097208908246        0.4054712371659491    
     1.523090043899582        0.4064104996546733    
     1.535082878890917        0.4072562391608643    
     1.547075713882252        0.4080079126300024    
     1.559068548873587        0.4086650842512481    
     1.571061383864923        0.4092274280222561    
     1.583054218856258        0.4096947299542982    
     1.595047053847593        0.4100668899060904    
     1.607039888838929        0.4103439230364695    
     1.619032723830264        0.4105259608678658    
     1.631025558821599        0.4106132519543635    
     1.643018393812934        0.4106061621499955    
     1.655011228804270        0.4105051744747990    
     1.667004063795605        0.4103108885780418    
     1.678996898786940        0.4100240197999224    
     1.690989733778276        0.4096453978349034    
     1.702982568769611        0.4091759650017023    
     1.714975403760946        0.4086167741267815    
     1.726968238752281        0.4079689860499669    
     1.738961073743617        0.4072338667625588    
     1.750953908734952        0.4064127841899884    
     1.762946743726287        0.4055072046326937    
     1.774939578717623        0.4045186888804310    
     1.786932413708958        0.4034488880167321    
     1.798925248700293        0.4022995389315770    
     1.810918083691628        0.4010724595616856    
     1.822910918682964        0.3997695438795805    
     1.834903753674299        0.3983927567425211    
     1.846896588665634        0.3969441281664794    
     1.858889423656970        0.3954257479734932    
     1.870882258648305        0.3938397599041253    
     1.882875093639640        0.3921883556908081    
     1.894867928630975        0.3904737690216167    
     1.906860763622311        0.3886982694207032    
     1.918853598613646        0.3868641560717335    
     1.930846433604981        0.3849737516105648    
     1.942839268596317        0.3830293959135135    
     1.954832103587652        0.3810334399075214    
     1.966824938578987        0.3789882394281675    
     1.978817773570322        0.3768961491512394    
     1.990810608561658        0.3747595166230875    
     2.002803443552993        0.3725806764143633    
     2.014796278544328        0.3703619444210616    
     2.026789113535663        0.3681056123359806    
     2.038781948526999        0.3658139423127942    
     2.050774783518334        0.3634891618439073    
     2.062767618509669        0.3611334588721634    
     2.074760453501005        0.3587489771552574    
     2.086753288492340        0.3563378119004395    
     2.098746123483675        0.3539020056857115    
     2.110738958475010        0.3514435446823125    
     2.122731793466346        0.3489643551917757    
     2.134724628457681        0.3464663005093014    
     2.146717463449016        0.3439511781235970    
     2.158710298440352        0.3414207172616966    
     2.170703133431687        0.3388765767856209    
     2.182695968423022        0.3363203434460348    
     2.194688803414357        0.3337535304963646    
     2.206681638405693        0.3311775766154204    
     2.218674473397028        0.3285938452406296    
     2.230667308388363        0.3260036247262432    
     2.242660143379699        0.3234081285509540    
     2.254652978371034        0.3208084937324099    
     2.266645813362369        0.3182057807188050    
     2.278638648353704        0.3156009794770266    
     2.290631483345040        0.3129950199309380    
     2.302624318336375        0.3103887832641129    
     2.314617153327710        0.3077831123912689    
     2.326609988319046        0.3051788188604075    
     2.338602823310381        0.3025766836040160    
     2.350595658301716        0.2999774557393416    
     2.362588493293051        0.2973818533163549    
     2.374581328284387        0.2947905648285037    
     2.386574163275722        0.2922042503109810    
     2.398566998267058        0.2896235421459826    
     2.410559833258393        0.2870490459429881    
     2.422552668249728        0.2844813413996956    
     2.434545503241063        0.2819209831373737    
     2.446538338232398        0.2793685015115085    
     2.458531173223734        0.2768244033985142    
     2.470524008215069        0.2742891729591531    
     2.482516843206405        0.2717632723793028    
     2.494509678197740        0.2692471425886914    
     2.506502513189075        0.2667412039582094    
     2.518495348180410        0.2642458569763931    
     2.530488183171745        0.2617614829056623    
     2.542481018163081        0.2592884444188747    
     2.554473853154416        0.2568270862167583    
     2.566466688145752        0.2543777356267561    
     2.578459523137087        0.2519407031838128    
     2.590452358128422        0.2495162831936205    
     2.602445193119757        0.2471047542788202    
     2.614438028111093        0.2447063799086483    
     2.626430863102428        0.2423214089125064    
     2.638423698093763        0.2399500759779168    
     2.650416533085099        0.2375926021333170    
     2.662409368076434        0.2352491952161213    
     2.674402203067769        0.2329200503264982    
     2.686395038059104        0.2306053502672649    
     2.698387873050440        0.2283052659703026    
     2.710380708041775        0.2260199569098903    
     2.722373543033110        0.2237495715033445    
     2.734366378024446        0.2214942474993282    
     2.746359213015781        0.2192541123541971    
     2.758352048007116        0.2170292835967305    
     2.770344882998451        0.2148198691815950    
     2.782337717989787        0.2126259678318714    
     2.794330552981122        0.2104476693709620    
     2.806323387972457        0.2082850550441972    
     2.818316222963793        0.2061381978304502    
     2.830309057955128        0.2040071627440448    
     2.842301892946463        0.2018920071272568    
     2.854294727937798        0.1997927809336784    
     2.866287562929134        0.1977095270027236    
     2.878280397920469        0.1956422813255349    
     2.890273232911804        0.1935910733025468    
     2.902266067903140        0.1915559259929600    
     2.914258902894475        0.1895368563563582    
     2.926251737885810        0.1875338754867139    
     2.938244572877145        0.1855469888389979    
     2.950237407868481        0.1835761964486259    
     2.962230242859816        0.1816214931439460    
     2.974223077851151        0.1796828687519828    
     2.986215912842487        0.1777603082976361    
     2.998208747833822        0.1758537921965321    
     3.010201582825157        0.1739632964417178    
     3.022194417816492        0.1720887927843814    
     3.034187252807828        0.1702302489087810    
     3.046180087799163        0.1683876286015538    
     3.058172922790498        0.1665608919155744    
     3.070165757781834        0.1647499953285290    
     3.082158592773169        0.1629548918963616    
     3.094151427764504        0.1611755314017484    
     3.106144262755839        0.1594118604977493    
     3.118137097747175        0.1576638228467850    
     3.130129932738510        0.1559313592550749    
     3.142122767729845        0.1542144078026808    
     3.154115602721181        0.1525129039692817    
     3.166108437712516        0.1508267807558146    
     3.178101272703851        0.1491559688021036    
     3.190094107695186        0.1475003965005989    
     3.202086942686522        0.1458599901063451    
     3.214079777677857        0.1442346738432917    
     3.226072612669192        0.1426243700070593    
     3.238065447660528        0.1410289990642643    
     3.250058282651863        0.1394484797485138    
     3.262051117643198        0.1378827291531655    
     3.274043952634533        0.1363316628209551    
     3.286036787625869        0.1347951948305850    
     3.298029622617204        0.1332732378803688    
     3.310022457608539        0.1317657033690180    
     3.322015292599874        0.1302725014736629    
     3.334008127591210        0.1287935412251881    
     3.346000962582545        0.1273287305809674    
     3.357993797573880        0.1258779764950781    
     3.369986632565216        0.1244411849860680    
     3.381979467556551        0.1230182612023564    
     3.393972302547887        0.1216091094853381    
     3.405965137539221        0.1202136334302586    
     3.417957972530557        0.1188317359449336    
     3.429950807521892        0.1174633193063783    
     3.441943642513227        0.1161082852154130    
     3.453936477504563        0.1147665348493070    
     3.465929312495898        0.1134379689125162    
     3.477922147487233        0.1121224876855699    
     3.489914982478568        0.1108199910721703    
     3.501907817469904        0.1095303786445601    
     3.513900652461239        0.1082535496872105    
     3.525893487452574        0.1069894032389612    
     3.537886322443910        0.1057378381334947    
     3.549879157435245        0.1044987530382838    
     3.561871992426580        0.1032720464920824    
     3.573864827417915        0.1020576169409743    
     3.585857662409251        0.1008553627730563    
     3.597850497400586        0.9966518235178894E-01
     3.609843332391922        0.9848697404802878E-01
     3.621836167383257        0.9732063627079691E-01
     3.633829002374592        0.9616606749682653E-01
     3.645821837365927        0.9502316629892819E-01
     3.657814672357262        0.9389183137321619E-01
     3.669807507348598        0.9277196156522598E-01
     3.681800342339933        0.9166345589495870E-01
     3.693793177331269        0.9056621358088572E-01
     3.705786012322604        0.8948013406294840E-01
     3.717778847313939        0.8840511702458313E-01
     3.729771682305274        0.8734106241380553E-01
     3.741764517296609        0.8628787046338141E-01
     3.753757352287945        0.8524544171011551E-01
     3.765750187279280        0.8421367701328546E-01
     3.777743022270616        0.8319247757224839E-01
     3.789735857261951        0.8218174494324844E-01
     3.801728692253286        0.8118138105544961E-01
     3.813721527244621        0.8019128822621967E-01
     3.825714362235957        0.7921136917568987E-01
     3.837707197227292        0.7824152704061225E-01
     3.849700032218627        0.7728166538754092E-01
     3.861692867209963        0.7633168822535644E-01
     3.873685702201298        0.7539150001715657E-01
     3.885678537192633        0.7446100569153381E-01
     3.897671372183968        0.7354011065325945E-01
     3.909664207175304        0.7262872079339536E-01
     3.921657042166639        0.7172674249885082E-01
     3.933649877157974        0.7083408266140495E-01
     3.945642712149310        0.6995064868620997E-01
     3.957635547140645        0.6907634849979581E-01
     3.969628382131980        0.6821109055758998E-01
     3.981621217123315        0.6735478385097221E-01
     3.993614052114651        0.6650733791387591E-01
     4.005606887105986        0.6566866282895562E-01
     4.017599722097321        0.6483866923333320E-01
     4.029592557088656        0.6401726832393718E-01
     4.041585392079992        0.6320437186245093E-01
     4.053578227071327        0.6239989217988103E-01
     4.065571062062662        0.6160374218076068E-01
     4.077563897053998        0.6081583534700082E-01
     4.089556732045333        0.6003608574139977E-01
     4.101549567036669        0.5926440801082554E-01
     4.113542402028004        0.5850071738908127E-01
     4.125535237019339        0.5774492969946465E-01
     4.137528072010674        0.5699696135703381E-01
     4.149520907002009        0.5625672937058829E-01
     4.161513741993344        0.5552415134437780E-01
     4.173506576984680        0.5479914547954524E-01
     4.185499411976015        0.5408163057531763E-01
     4.197492246967350        0.5337152602995198E-01
     4.209485081958686        0.5266875184144382E-01
     4.221477916950021        0.5197322860801192E-01
     4.233470751941357        0.5128487752836140E-01
     4.245463586932692        0.5060362040173941E-01
     4.257456421924027        0.4992937962778705E-01
     4.269449256915363        0.4926207820619728E-01
     4.281442091906698        0.4860163973618631E-01
     4.293434926898033        0.4794798841578486E-01
     4.305427761889368        0.4730104904095658E-01
     4.317420596880703        0.4666074700455159E-01
     4.329413431872038        0.4602700829509957E-01
     4.341406266863374        0.4539975949545066E-01
     4.353399101854709        0.4477892778126962E-01
     4.365391936846045        0.4416444091938935E-01
     4.377384771837380        0.4355622726602865E-01
     4.389377606828715        0.4295421576488175E-01
     4.401370441820051        0.4235833594508368E-01
     4.413363276811386        0.4176851791905636E-01
     4.425356111802721        0.4118469238024150E-01
     4.437348946794057        0.4060679060072592E-01
     4.449341781785392        0.4003474442876079E-01
     4.461334616776726        0.3946848628618329E-01
     4.473327451768062        0.3890794916574360E-01
     4.485320286759397        0.3835306662834002E-01
     4.497313121750732        0.3780377280016862E-01
     4.509305956742068        0.3726000236979142E-01
     4.521298791733403        0.3672169058512427E-01
     4.533291626724739        0.3618877325035163E-01
     4.545284461716074        0.3566118672277056E-01
     4.557277296707409        0.3513886790956557E-01
     4.569270131698745        0.3462175426452140E-01
     4.581262966690080        0.3410978378467447E-01
     4.593255801681415        0.3360289500690580E-01
     4.605248636672751        0.3310102700448100E-01
     4.617241471664085        0.3260411938353848E-01
     4.629234306655420        0.3211211227952775E-01
     4.641227141646756        0.3162494635360380E-01
     4.653219976638091        0.3114256278897751E-01
     4.665212811629427        0.3066490328722476E-01
     4.677205646620762        0.3019191006455960E-01
     4.689198481612097        0.2972352584806921E-01
     4.701191316603433        0.2925969387191783E-01
     4.713184151594768        0.2880035787351877E-01
     4.725176986586103        0.2834546208967699E-01
     4.737169821577439        0.2789495125270624E-01
     4.749162656568774        0.2744877058652050E-01
     4.761155491560109        0.2700686580270290E-01
     4.773148326551444        0.2656918309655396E-01
     4.785141161542779        0.2613566914312074E-01
     4.797133996534115        0.2570627109320814E-01
     4.809126831525450        0.2528093656937539E-01
     4.821119666516785        0.2485961366191766E-01
     4.833112501508121        0.2444225092483618E-01
     4.845105336499456        0.2402879737179638E-01
     4.857098171490791        0.2361920247207705E-01
     4.869091006482127        0.2321341614651193E-01
     4.881083841473462        0.2281138876342305E-01
     4.893076676464797        0.2241307113455007E-01
     4.905069511456133        0.2201841451097472E-01
     4.917062346447468        0.2162737057904209E-01
     4.929055181438804        0.2123989145628013E-01
     4.941048016430138        0.2085592968731860E-01
     4.953040851421473        0.2047543823980775E-01
     4.965033686412809        0.2009837050033874E-01
     4.977026521404144        0.1972468027036582E-01
     4.989019356395479        0.1935432176213237E-01
     5.001012191386815        0.1898724959459991E-01
     5.013005026378150        0.1862341878938317E-01
     5.024997861369485        0.1826278476669017E-01
     5.036990696360821        0.1790530334126867E-01
     5.048983531352156        0.1755093071836089E-01
     5.060976366343491        0.1719962348966478E-01
     5.072969201334827        0.1685133862930498E-01
     5.084962036326162        0.1650603348981281E-01
     5.096954871317497        0.1616366579811570E-01
     5.108947706308832        0.1582419365153847E-01
     5.120940541300167        0.1548757551381366E-01
     5.132933376291503        0.1515377021110542E-01
     5.144926211282838        0.1482273692804453E-01
     5.156919046274173        0.1449443520377619E-01
     5.168911881265509        0.1416882492802093E-01
     5.180904716256844        0.1384586633714904E-01
     5.192897551248179        0.1352552001026918E-01
     5.204890386239515        0.1320774686533068E-01
     5.216883221230850        0.1289250815524110E-01
     5.228876056222186        0.1257976546399894E-01
     5.240868891213521        0.1226948070284102E-01
     5.252861726204856        0.1196161610640615E-01
     5.264854561196191        0.1165613422891444E-01
     5.276847396187526        0.1135299794036331E-01
     5.288840231178861        0.1105217042273901E-01
     5.300833066170197        0.1075361516624625E-01
     5.312825901161532        0.1045729596555327E-01
     5.324818736152867        0.1016317691605534E-01
     5.336811571144203        0.9871222410154942E-02
     5.348804406135538        0.9581397133559339E-02
     5.360797241126874        0.9293666061596135E-02
     5.372790076118209        0.9007994455546267E-02
     5.384782911109544        0.8724347858995698E-02
     5.396775746100880        0.8442692094204002E-02
     5.408768581092215        0.8162993258491884E-02
     5.420761416083550        0.7885217720717590E-02
     5.432754251074885        0.7609332131625243E-02
     5.444747086066220        0.7335303781824641E-02
     5.456739921057555        0.7063103235926480E-02
     5.468732756048891        0.6792712482564367E-02
     5.480725591040226        0.6524138871818357E-02
     5.492718426031561        0.6257430827517902E-02
     5.504711261022897        0.5992690584759360E-02
     5.516704096014232        0.5730081260953400E-02
     5.528696931005568        0.5469827859309214E-02
     5.540689765996903        0.5212213185322914E-02
     5.552682600988238        0.4957570153685482E-02
     5.564675435979574        0.4706271930928058E-02
     5.576668270970909        0.4458721099959399E-02
     5.588661105962244        0.4215338722599916E-02
     5.600653940953579        0.3976553896113437E-02
     5.612646775944914        0.3742794176270055E-02
     5.624639610936249        0.3514477073711815E-02
     5.636632445927585        0.3292002713578097E-02
     5.648625280918920        0.3075747669526577E-02
     5.660618115910256        0.2866059932438713E-02
     5.672610950901591        0.2663254943139087E-02
     5.684603785892926        0.2467612601233820E-02
     5.696596620884262        0.2279375154232521E-02
     5.708589455875597        0.2098745869259777E-02
     5.720582290866932        0.1925888391689520E-02
     5.732575125858268        0.1760926699401251E-02
     5.744567960849603        0.1603945567035335E-02
     5.756560795840937        0.1454991460891731E-02
     5.768553630832273        0.1314073791500658E-02
     5.780546465823608        0.1181166457037919E-02
     5.792539300814944        0.1056209616405760E-02
     5.804532135806279        0.9391116356962288E-03
     5.816524970797614        0.8297511556106768E-03
     5.828517805788950        0.7279792298048003E-03
     5.840510640780285        0.6336214843697666E-03
     5.852503475771620        0.5464802455177037E-03
     5.864496310762956        0.4663365737106129E-03
     5.876489145754291        0.3929521234413834E-03
     5.888481980745626        0.3260707093068956E-03
     5.900474815736962        0.2654193803675517E-03
     5.912467650728296        0.2107086373110707E-03
     5.924460485719631        0.1616310434517271E-03
     5.936453320710967        0.1178565062628279E-03
     5.948446155702302        0.7901963821285867E-04
     5.960438990693638        0.4468454969212320E-04
     5.972431825684973        0.1421323586957930E-04
     5.984424660676308         0.000000000000000    
  0  5  2  0  0.000000   #orbital l, n, z, is_polarized, population
 500    0.8419931971962493E-02     4.201546054009285     # npts, delta, cutoff
     0.000000000000000       -0.2886482235456465    
    0.8419931971962493E-02   -0.2885825192372206    
    0.1683986394392499E-01   -0.2883810973969385    
    0.2525979591588748E-01   -0.2880455379747294    
    0.3367972788784997E-01   -0.2875760583623892    
    0.4209965985981247E-01   -0.2869729619354181    
    0.5051959183177496E-01   -0.2862366378867422    
    0.5893952380373745E-01   -0.2853675606858174    
    0.6735945577569995E-01   -0.2843662893801439    
    0.7577938774766244E-01   -0.2832334667646930    