<preamble>

<basis_specs>
===============================================================================
Ta                   Z=  73    Mass=  180.95        Charge= 0.17977+309
Lmxo=2 Lmxkb= 3    BasisType=split      Semic=T
L=0  Nsemic=1  Cnfigmx=6
          i=1  nzeta=1  polorb=0  (5s)  (semicore shell)
            splnorm:   0.15000    
               vcte:    40.000    
               rinn:    2.6862    
               qcoe:    0.0000    
               qyuk:    0.0000    
               qwid:   0.10000E-01
                rcs:    2.9847    
            lambdas:    1.0000    
          i=2  nzeta=2  polorb=0  (6s)  (to be polarized non-perturbatively)
            splnorm:   0.15000    
               vcte:    40.000    
               rinn:    6.4371    
               qcoe:    0.0000    
               qyuk:    0.0000    
               qwid:   0.10000E-01
                rcs:    7.1523      5.1494    
            lambdas:    1.0000      1.0000    
L=1  Nsemic=1  Cnfigmx=6
          i=1  nzeta=1  polorb=0  (5p)  (semicore shell)
            splnorm:   0.15000    
               vcte:    40.000    
               rinn:    3.2177    
               qcoe:    0.0000    
               qyuk:    0.0000    
               qwid:   0.10000E-01
                rcs:    3.5753    
            lambdas:    1.0000    
          i=2  nzeta=1  polorb=0  (6p)  (non-perturbative polarization shell)
            splnorm:   0.15000    
               vcte:    40.000    
               rinn:    6.4435    
               qcoe:    0.0000    
               qyuk:    0.0000    
               qwid:   0.10000E-01
                rcs:    7.1523    
            lambdas:    1.0000    
L=2  Nsemic=0  Cnfigmx=5
          i=1  nzeta=2  polorb=0  (5d)
            splnorm:   0.15000    
               vcte:    40.000    
               rinn:    5.8646    
               qcoe:    0.0000    
               qyuk:    0.0000    
               qwid:   0.10000E-01
                rcs:    6.5097      4.4042    
            lambdas:    1.0000      1.0000    
-------------------------------------------------------------------------------
L=0  Nkbl=2  erefs: 0.17977+309 0.17977+309
L=1  Nkbl=2  erefs: 0.17977+309 0.17977+309
L=2  Nkbl=1  erefs: 0.17977+309
L=3  Nkbl=1  erefs: 0.17977+309
===============================================================================
</basis_specs>

<pseudopotential_header>
 Ta pw nrl pcec
 ONCVPSP-3.2018-03-09Hamann's oncvpsp                        
 5s 2.00  r= 1.71/5p 6.00  r= 1.71/5d 3.00  r= 1.71/5f 0.00  r= 2.25/   5s:5p:5d:6s:
</pseudopotential_header>
</preamble>
Ta                            # Symbol
Ta                            # Label
   73                         # Atomic number
     13.0000000000                             # Valence charge
     180.950000000        # Mass 
     173.272026621        # Self energy 
   2   7                      # Lmax for basis, no. of nl orbitals 
   3   8                      # Lmax for projectors, no. of nl KB projectors
# PAOs:__________________________
  0  5  1  0  2.000000   #orbital l, n, z, is_polarized, population
 500    0.5981277232514739E-02     2.984657339024855     # npts, delta, cutoff
     0.000000000000000        0.9573967964339185    
    0.5981277232514739E-02    0.9574287787625174    
    0.1196255446502948E-01    0.9575867704327716    
    0.1794383169754422E-01    0.9578499838472585    
    0.2392510893005896E-01    0.9582182166914067    
    0.2990638616257370E-01    0.9586911963056268    
    0.3588766339508843E-01    0.9592685740803962    
    0.4186894062760318E-01    0.9599499248561777    
    0.4785021786011791E-01    0.9607347469926480    
    0.5383149509263265E-01    0.9616224626253790    
    0.5981277232514740E-01    0.9626124180135011    
    0.6579404955766213E-01    0.9637038839518864    
    0.7177532679017687E-01    0.9648960562389082    
    0.7775660402269161E-01    0.9661880561961849    
    0.8373788125520636E-01    0.9675789312386236    
    0.8971915848772109E-01    0.9690676554938249    
    0.9570043572023583E-01    0.9706531304702158    
    0.1016817129527506        0.9723341857734127    
    0.1076629901852653        0.9741095798703890    
    0.1136442674177801        0.9759780009009904    
    0.1196255446502948        0.9779380675363961    
    0.1256068218828095        0.9799883298840600    
    0.1315880991153243        0.9821272704386829    
    0.1375693763478390        0.9843533050787076    
    0.1435506535803537        0.9866647841078473    
    0.1495319308128685        0.9890599933410775    
    0.1555132080453832        0.9915371552345478    
    0.1614944852778980        0.9940944300587889    
    0.1674757625104127        0.9967299171146089    
    0.1734570397429274        0.9994416559909932    
    0.1794383169754422         1.002227627864341    
    0.1854195942079569         1.005085756838291    
    0.1914008714404717         1.008013911323393    
    0.1973821486729864         1.011009905455847    
    0.2033634259055011         1.014071500554450    
    0.2093447031380159         1.017196406614943    
    0.2153259803705306         1.020382283840834    
    0.2213072576030453         1.023626744209787    
    0.2272885348355601         1.026927353074623    
    0.2332698120680748         1.030281630797935    
    0.2392510893005896         1.033687054419298    
    0.2452323665331043         1.037141059354009    
    0.2512136437656191         1.040641041122266    
    0.2571949209981338         1.044184357107664    
    0.2631761982306485         1.047768328343840    
    0.2691574754631633         1.051390241328066    
    0.2751387526956780         1.055047349860590    
    0.2811200299281927         1.058736876908424    
    0.2871013071607075         1.062456016492322    
    0.2930825843932222         1.066201935595604    
    0.2990638616257369         1.069971776093477    
    0.3050451388582517         1.073762656701463    
    0.3110264160907664         1.077571674941522    
    0.3170076933232812         1.081395909124425    
    0.3229889705557960         1.085232420346906    
    0.3289702477883107         1.089078254502092    
    0.3349515250208254         1.092930444301683    
    0.3409328022533402         1.096786011308340    
    0.3469140794858549         1.100641967976712    
    0.3528953567183696         1.104495319701488    
    0.3588766339508844         1.108343066870887    
    0.3648579111833991         1.112182206923935    
    0.3708391884159138         1.116009736409879    
    0.3768204656484286         1.119822653048074    
    0.3828017428809433         1.123617957786676    
    0.3887830201134581         1.127392656858417    
    0.3947642973459728         1.131143763831790    
    0.4007455745784875         1.134868301655921    
    0.4067268518110023         1.138563304697396    
    0.4127081290435170         1.142225820767349    
    0.4186894062760317         1.145852913137061    
    0.4246706835085465         1.149441662540346    
    0.4306519607410612         1.152989169161028    
    0.4366332379735759         1.156492554603748    
    0.4426145152060907         1.159948963846417    
    0.4485957924386055         1.163355567172603    
    0.4545770696711202         1.166709562082150    
    0.4605583469036350         1.170008175178358    
    0.4665396241361497         1.173248664030050    
    0.4725209013686644         1.176428319006883    
    0.4785021786011792         1.179544465086271    
    0.4844834558336939         1.182594463630323    
    0.4904647330662086         1.185575714131191    
    0.4964460102987234         1.188485655923316    
    0.5024272875312381         1.191321769860995    
    0.5084085647637528         1.194081579959827    
    0.5143898419962676         1.196762655000536    
    0.5203711192287823         1.199362610093772    
    0.5263523964612971         1.201879108204507    
    0.5323336736938118         1.204309861634657    
    0.5383149509263265         1.206652633462655    
    0.5442962281588413         1.208905238938707    
    0.5502775053913560         1.211065546834508    
    0.5562587826238707         1.213131480746275    
    0.5622400598563855         1.215101020349976    
    0.5682213370889002         1.216972202607677    
    0.5742026143214150         1.218743122924044    
    0.5801838915539297         1.220411936251992    
    0.5861651687864444         1.221976858146633    
    0.5921464460189592         1.223436165766661    
    0.5981277232514739         1.224788198822409    
    0.6041090004839886         1.226031360469849    
    0.6100902777165034         1.227164118149902    
    0.6160715549490181         1.228185004372436    
    0.6220528321815328         1.229092617444469    
    0.6280341094140476         1.229885622142062    
    0.6340153866465623         1.230562750325549    
    0.6399966638790772         1.231122801497764    
    0.6459779411115919         1.231564643304972    
    0.6519592183441066         1.231887211980347    
    0.6579404955766214         1.232089512729851    
    0.6639217728091361         1.232170620060442    
    0.6699030500416508         1.232129678050632    
    0.6758843272741656         1.231965900563458    
    0.6818656045066803         1.231678571402009    
    0.6878468817391951         1.231267044407715    
    0.6938281589717098         1.230730743501677    
    0.6998094362042245         1.230069162669351    
    0.7057907134367393         1.229281865889028    
    0.7117719906692540         1.228368487004540    
    0.7177532679017687         1.227328729542750    
    0.7237345451342835         1.226162366476401    
    0.7297158223667982         1.224869239932984    
    0.7356970995993130         1.223449260850337    
    0.7416783768318277         1.221902408579746    
    0.7476596540643424         1.220228730437379    
    0.7536409312968572         1.218428341204933    
    0.7596222085293719         1.216501422580430    
    0.7656034857618866         1.214448222580150    
    0.7715847629944014         1.212269054892757    
    0.7775660402269161         1.209964298186674    
    0.7835473174594308         1.207534395371864    
    0.7895285946919456         1.204979852817189    
    0.7955098719244603         1.202301239524563    
    0.8014911491569751         1.199499186261154    
    0.8074724263894898         1.196574384650942    
    0.8134537036220045         1.193527586226950    
    0.8194349808545193         1.190359601445533    
    0.8254162580870340         1.187071298664089    
    0.8313975353195487         1.183663603083643    
    0.8373788125520635         1.180137495657736    
    0.8433600897845782         1.176494011969091    
    0.8493413670170930         1.172734241075546    
    0.8553226442496077         1.168859324326778    
    0.8613039214821224         1.164870454150512    
    0.8672851987146372         1.160768882416283    
    0.8732664759471519         1.156555896048324    
    0.8792477531796666         1.152232827328275    
    0.8852290304121814         1.147801060402305    
    0.8912103076446961         1.143262024081066    
    0.8971915848772110         1.138617190495074    
    0.9031728621097257         1.133868073733258    
    0.9091541393422404         1.129016228466267    
    0.9151354165747552         1.124063248556051    
    0.9211166938072699         1.119010765653287    
    0.9270979710397846         1.113860447784151    
    0.9330792482722994         1.108613997927968    
    0.9390605255048141         1.103273152587232    
    0.9450418027373289         1.097839680351475    
    0.9510230799698436         1.092315380456446    
    0.9570043572023583         1.086702081340043    
    0.9629856344348731         1.081001639196402    
    0.9689669116673878         1.075215936529553    
    0.9749481888999025         1.069346880707968    
    0.9809294661324173         1.063396402521378    
    0.9869107433649320         1.057366454741121    
    0.9928920205974467         1.051259010685319    
    0.9988732978299615         1.045076062790104    
     1.004854575062476         1.038819621188106    
     1.010835852294991         1.032491712295365    
     1.016817129527506         1.026094377407785    
     1.022798406760020         1.019629671308250    
     1.028779683992535         1.013099660885423    
     1.034760961225050         1.006506423765265    
     1.040742238457565        0.9998520469562361    
     1.046723515690079        0.9931386255091096    
     1.052704792922594        0.9863682611923044    
     1.058686070155109        0.9795430611835664    
     1.064667347387624        0.9726651367788245    
     1.070648624620138        0.9657366021189719    
     1.076629901852653        0.9587595729353149    
     1.082611179085168        0.9517361653143445    
     1.088592456317683        0.9446684944825010    
     1.094573733550197        0.9375586736115059    
     1.100555010782712        0.9304088126448263    
     1.106536288015227        0.9232210171457877    
     1.112517565247741        0.9159973871678092    
     1.118498842480256        0.9087400161471858    
     1.124480119712771        0.9014509898188277    
     1.130461396945286        0.8941323851552937    
     1.136442674177800        0.8867862693294515    
     1.142423951410315        0.8794146987010328    
     1.148405228642830        0.8720197178273258    
     1.154386505875345        0.8646033584982225    
     1.160367783107859        0.8571676387957788    
     1.166349060340374        0.8497145621784293    
     1.172330337572889        0.8422461165899711    
     1.178311614805404        0.8347642735933726    
     1.184292892037918        0.8272709875294688    
     1.190274169270433        0.8197681947005437    
     1.196255446502948        0.8122578125787920    
     1.202236723735463        0.8047417390396164    
     1.208218000967977        0.7972218516196938    
     1.214199278200492        0.7897000067997194    
     1.220180555433007        0.7821780393117211    
     1.226161832665521        0.7746577614707948    
     1.232143109898036        0.7671409625311186    
     1.238124387130551        0.7596294080660636    
     1.244105664363066        0.7521248393722091    
     1.250086941595580        0.7446289728970561    
     1.256068218828095        0.7371434996902083    
     1.262049496060610        0.7296700848777931    
     1.268030773293125        0.7222103671598608    
     1.274012050525639        0.7147659583305028    
     1.279993327758154        0.7073384428204231    
     1.285974604990669        0.6999293772616736    
     1.291955882223184        0.6925402900742662    
     1.297937159455699        0.6851726810743680    
     1.303918436688213        0.6778280211037763    
     1.309899713920728        0.6705077516803661    
     1.315880991153243        0.6632132846692094    
     1.321862268385757        0.6559460019740359    
     1.327843545618272        0.6487072552487434    
     1.333824822850787        0.6414983656286268    
     1.339806100083302        0.6343206234810188    
     1.345787377315816        0.6271752881750234    
     1.351768654548331        0.6200635878700455    
     1.357749931780846        0.6129867193227814    
     1.363731209013361        0.6059458477123838    
     1.369712486245875        0.5989421064834975    
     1.375693763478390        0.5919765972068475    
     1.381675040710905        0.5850503894571121    
     1.387656317943420        0.5781645207077692    
     1.393637595175934        0.5713199962426385    
     1.399618872408449        0.5645177890838474    
     1.405600149640964        0.5577588399359360    
     1.411581426873479        0.5510440571458405    
     1.417562704105993        0.5443743166784990    
     1.423543981338508        0.5377504621078079    
     1.429525258571023        0.5311733046227075    
     1.435506535803537        0.5246436230481264    
     1.441487813036052        0.5181621638805747    
     1.447469090268567        0.5117296413381417    
     1.453450367501082        0.5053467374246789    
     1.459431644733596        0.4990141020079571    
     1.465412921966111        0.4927323529115800    
     1.471394199198626        0.4865020760204608    
     1.477375476431141        0.4803238253996425    
     1.483356753663655        0.4741981234262989    
     1.489338030896170        0.4681254609346895    
     1.495319308128685        0.4621062973739242    
     1.501300585361200        0.4561410609783180    
     1.507281862593714        0.4502301489501975    
     1.513263139826229        0.4443739276549529    
     1.519244417058744        0.4385727328281933    
     1.525225694291259        0.4328268697948117    
     1.531206971523773        0.4271366136998165    
     1.537188248756288        0.4215022092098402    
     1.543169525988803        0.4159238711137589    
     1.549150803221317        0.4104017850951719    
     1.555132080453832        0.4049361077188277    
     1.561113357686347        0.3995269667177142    
     1.567094634918862        0.3941744612902836    
     1.573075912151376        0.3888786624083249    
     1.579057189383891        0.3836396131353053    
     1.585038466616406        0.3784573289550330    
     1.591019743848921        0.3733317981104654    
     1.597001021081435        0.3682629819524907    
     1.602982298313950        0.3632508152985320    
     1.608963575546465        0.3582952068007662    
     1.614944852778980        0.3533960393238156    
     1.620926130011494        0.3485531703316991    
     1.626907407244009        0.3437664322838819    
     1.632888684476524        0.3390356330402152    
     1.638869961709039        0.3343605562745777    
     1.644851238941553        0.3297409618970266    
     1.650832516174068        0.3251765864842317    
     1.656813793406583        0.3206671437060082    
     1.662795070639097        0.3162123246734083    
     1.668776347871612        0.3118117985292642    
     1.674757625104127        0.3074652130801417    
     1.680738902336642        0.3031721955449572    
     1.686720179569156        0.2989323527627084    
     1.692701456801671        0.2947452706000561    
     1.698682734034186        0.2906105139462083    
     1.704664011266701        0.2865276273276537    
     1.710645288499215        0.2824961378079234    
     1.716626565731730        0.2785155583979022    
     1.722607842964245        0.2745853916808176    
     1.728589120196760        0.2707051335672328    
     1.734570397429274        0.2668742767902670    
     1.740551674661789        0.2630923140369533    
     1.746532951894304        0.2593587401241327    
     1.752514229126819        0.2556730519022395    
     1.758495506359333        0.2520347479053984    
     1.764476783591848        0.2484433274661030    
     1.770458060824363        0.2448982907643386    
     1.776439338056877        0.2413991392444872    
     1.782420615289392        0.2379453758983251    
     1.788401892521907        0.2345365055637245    
     1.794383169754422        0.2311720349660190    
     1.800364446986937        0.2278514728285124    
     1.806345724219451        0.2245743299935572    
     1.812327001451966        0.2213401195386499    
     1.818308278684481        0.2181483568871961    
     1.824289555916996        0.2149985599130028    
     1.830270833149510        0.2118902490391920    
     1.836252110382025        0.2088229473317317    
     1.842233387614540        0.2057961805877896    
     1.848214664847055        0.2028094774190846    
     1.854195942079569        0.1998623693304170    
     1.860177219312084        0.1969543907935518    
     1.866158496544599        0.1940850793166178    
     1.872139773777113        0.1912539755091915    
     1.878121051009628        0.1884606231432174    
     1.884102328242143        0.1857045692099203    
     1.890083605474658        0.1829853639728569    
     1.896064882707172        0.1803025610172437    
     1.902046159939687        0.1776557172957074    
     1.908027437172202        0.1750443931705888    
     1.914008714404717        0.1724681524529282    
     1.919989991637231        0.1699265624382560    
     1.925971268869746        0.1674191939393166    
     1.931952546102261        0.1649456213158364    
     1.937933823334776        0.1625054225014520    
     1.943915100567290        0.1600981790279102    
     1.949896377799805        0.1577234760466435    
     1.955877655032320        0.1553809023478263    
     1.961858932264835        0.1530700503770109    
     1.967840209497349        0.1507905162494368    
     1.973821486729864        0.1485418997621121    
     1.979802763962379        0.1463238044037541    
     1.985784041194893        0.1441358373626743    
     1.991765318427408        0.1419776095326968    
     1.997746595659923        0.1398487355171877    
     2.003727872892437        0.1377488336312765    
     2.009709150124952        0.1356775259023468    
     2.015690427357467        0.1336344380688644    
     2.021671704589982        0.1316191995776229    
     2.027652981822496        0.1296314435794680    
     2.033634259055011        0.1276708069235701    
     2.039615536287526        0.1257369301503116    
     2.045596813520041        0.1238294574828455    
     2.051578090752556        0.1219480368173915    
     2.057559367985070        0.1200923197123244    
     2.063540645217585        0.1182619613761082    
     2.069521922450100        0.1164566206541370    
     2.075503199682615        0.1146759600145294    
     2.081484476915129        0.1129196455329276    
     2.087465754147644        0.1111873468763501    
     2.093447031380159        0.1094787372861484    
     2.099428308612674        0.1077934935601071    
     2.105409585845188        0.1061312960337365    
     2.111390863077703        0.1044918285607949    
     2.117372140310218        0.1028747784930883    
     2.123353417542733        0.1012798366595775    
     2.129334694775247        0.9970669734484001E-01
     2.135315972007762        0.9815505826691603E-01
     2.141297249240277        0.9662462055457872E-01
     2.147278526472792        0.9511508872405719E-01
     2.153259803705306        0.9362617065525251E-01
     2.159241080937821        0.9215757756747124E-01
     2.165222358170336        0.9070902399470994E-01
     2.171203635402851        0.8928022776052037E-01
     2.177184912635365        0.8787090995248223E-01
     2.183166189867880        0.8648079489631053E-01
     2.189147467100395        0.8510961012962671E-01
     2.195128744332909        0.8375708637541260E-01
     2.201110021565424        0.8242295751517745E-01
     2.207091298797939        0.8110696056185780E-01
     2.213072576030453        0.7980883563247440E-01
     2.219053853262968        0.7852832592056481E-01
     2.225035130495483        0.7726517766841681E-01
     2.231016407727998        0.7601914013911773E-01
     2.236997684960512        0.7478996558844246E-01
     2.242978962193027        0.7357740923659588E-01
     2.248960239425542        0.7238122923982925E-01
     2.254941516658057        0.7120118666194519E-01
     2.260922793890571        0.7003704544571068E-01
     2.266904071123086        0.6888857238418906E-01
     2.272885348355601        0.6775553709201108E-01
     2.278866625588116        0.6663771197659440E-01
     2.284847902820630        0.6553487220932870E-01
     2.290829180053145        0.6444679569673731E-01
     2.296810457285660        0.6337326305163013E-01
     2.302791734518175        0.6231405756425596E-01
     2.308773011750689        0.6126896517346978E-01
     2.314754288983204        0.6023777443792477E-01
     2.320735566215719        0.5922027650729609E-01
     2.326716843448234        0.5821626509355153E-01
     2.332698120680748        0.5722553644227715E-01
     2.338679397913263        0.5624788930406141E-01
     2.344660675145778        0.5528312490595594E-01
     2.350641952378293        0.5433104692301392E-01
     2.356623229610807        0.5339146144991534E-01
     2.362604506843322        0.5246417697268912E-01
     2.368585784075837        0.5154900434053670E-01
     2.374567061308352        0.5064575673776302E-01
     2.380548338540866        0.4975424965582579E-01
     2.386529615773381        0.4887430086550255E-01
     2.392510893005896        0.4800573038918685E-01
     2.398492170238411        0.4714836047331559E-01
     2.404473447470925        0.4630201556093382E-01
     2.410454724703440        0.4546652226440174E-01
     2.416436001935955        0.4464170933824830E-01
     2.422417279168469        0.4382740765217424E-01
     2.428398556400984        0.4302345016421286E-01
     2.434379833633499        0.4222967189404512E-01
     2.440361110866013        0.4144590989647989E-01
     2.446342388098528        0.4067200323509825E-01
     2.452323665331043        0.3990779295606466E-01
     2.458304942563558        0.3915312206211116E-01
     2.464286219796072        0.3840783548669276E-01
     2.470267497028587        0.3767178006832059E-01
     2.476248774261102        0.3694480452507177E-01
     2.482230051493617        0.3622675942927934E-01
     2.488211328726131        0.3551749718240490E-01
     2.494192605958646        0.3481687199009287E-01
     2.500173883191161        0.3412473983741206E-01
     2.506155160423676        0.3344095846428074E-01
     2.512136437656190        0.3276538734108080E-01
     2.518117714888705        0.3209788764446004E-01
     2.524098992121220        0.3143832223332271E-01
     2.530080269353735        0.3078655562501060E-01
     2.536061546586249        0.3014245397167491E-01
     2.542042823818764        0.2950588503683787E-01
     2.548024101051279        0.2887671817214724E-01
     2.554005378283794        0.2825482429432015E-01
     2.559986655516309        0.2764007586228148E-01
     2.565967932748823        0.2703234685449042E-01
     2.571949209981338        0.2643151274646112E-01
     2.577930487213853        0.2583745048847367E-01
     2.583911764446368        0.2525003848347573E-01
     2.589893041678882        0.2466915656517560E-01
     2.595874318911397        0.2409468597632381E-01
     2.601855596143912        0.2352650934718675E-01
     2.607836873376427        0.2296451067420647E-01
     2.613818150608941        0.2240857529885075E-01
     2.619799427841456        0.2185858988664961E-01
     2.625780705073971        0.2131444240641823E-01
     2.631761982306486        0.2077602210966613E-01
     2.637743259539000        0.2024321951019004E-01
     2.643724536771515        0.1971592636385163E-01
     2.649705814004029        0.1919403564853580E-01
     2.655687091236544        0.1867744154429235E-01
     2.661668368469059        0.1816603941365613E-01
     2.667649645701574        0.1765972578214661E-01
     2.673630922934088        0.1715839831894523E-01
     2.679612200166603        0.1666195581774720E-01
     2.685593477399118        0.1617029817779102E-01
     2.691574754631633        0.1568332638505771E-01
     2.697556031864147        0.1520094249364391E-01
     2.703537309096662        0.1472304960737270E-01
     2.709518586329177        0.1424955187448319E-01
     2.715499863561692        0.1378035480769579E-01
     2.721481140794206        0.1331536774295418E-01
     2.727462418026721        0.1285451152233747E-01
     2.733443695259236        0.1239773176354400E-01
     2.739424972491751        0.1194501405528192E-01
     2.745406249724265        0.1149639665191312E-01
     2.751387526956780        0.1105197809645123E-01
     2.757368804189295        0.1061191931161212E-01
     2.763350081421810        0.1017644098876807E-01
     2.769331358654324        0.9745817581675708E-02
     2.775312635886839        0.9320369197881579E-02
     2.781293913119354        0.8900452453497534E-02
     2.787275190351869        0.8486451079914163E-02
     2.793256467584383        0.8078766819552771E-02
     2.799237744816898        0.7677810947305458E-02
     2.805219022049413        0.7283996606221488E-02
     2.811200299281928        0.6897732042394051E-02
     2.817181576514442        0.6519414754830600E-02
     2.823162853746957        0.6149426532130863E-02
     2.829144130979472        0.5788129321592624E-02
     2.835125408211987        0.5435861862269792E-02
     2.841106685444501        0.5092937007425215E-02
     2.847087962677016        0.4759639660847787E-02
     2.853069239909531        0.4436225253644183E-02
     2.859050517142045        0.4122918691984002E-02
     2.865031794374560        0.3819913710962144E-02
     2.871013071607075        0.3527372574585849E-02
     2.876994348839589        0.3245426066465330E-02
     2.882975626072104        0.2974173719711608E-02
     2.888956903304619        0.2713684237512704E-02
     2.894938180537134        0.2463996057452841E-02
     2.900919457769648        0.2225118012324404E-02
     2.906900735002163        0.1997030037039151E-02
     2.912882012234678        0.1779683863774418E-02
     2.918863289467193        0.1573003632949757E-02
     2.924844566699707        0.1376886321000172E-02
     2.930825843932222        0.1191201837388494E-02
     2.936807121164737        0.1015792552913785E-02
     2.942788398397252        0.8504718456584677E-03
     2.948769675629766        0.6950208879937340E-03
     2.954750952862281        0.5491820852645468E-03
     2.960732230094796        0.4126455494345834E-03
     2.966713507327311        0.2850191249285625E-03
     2.972694784559825        0.1657518286949123E-03
     2.978676061792340        0.5386347859275689E-04
     2.984657339024855         0.000000000000000    
  0  6  1  0  2.000000   #orbital l, n, z, is_polarized, population
 500    0.1433324723609295E-01     7.152290370810381     # npts, delta, cutoff
     0.000000000000000        0.6098379986734976    
    0.1433324723609295E-01    0.6099155439120193    