<preamble>

<basis_specs>
===============================================================================
Tc                   Z=  43    Mass=  97.906        Charge= 0.17977+309
Lmxo=2 Lmxkb= 2    BasisType=split      Semic=T
L=0  Nsemic=1  Cnfigmx=5
          i=1  nzeta=1  polorb=0  (4s)  (semicore shell)
            splnorm:   0.15000    
               vcte:    40.000    
               rinn:    2.6408    
               qcoe:    0.0000    
               qyuk:    0.0000    
               qwid:   0.10000E-01
                rcs:    2.9312    
            lambdas:    1.0000    
          i=2  nzeta=2  polorb=0  (5s)  (to be polarized non-perturbatively)
            splnorm:   0.15000    
               vcte:    40.000    
               rinn:    6.8700    
               qcoe:    0.0000    
               qyuk:    0.0000    
               qwid:   0.10000E-01
                rcs:    7.6257      5.5291    
            lambdas:    1.0000      1.0000    
L=1  Nsemic=1  Cnfigmx=5
          i=1  nzeta=1  polorb=0  (4p)  (semicore shell)
            splnorm:   0.15000    
               vcte:    40.000    
               rinn:    3.0056    
               qcoe:    0.0000    
               qyuk:    0.0000    
               qwid:   0.10000E-01
                rcs:    3.3396    
            lambdas:    1.0000    
          i=2  nzeta=1  polorb=0  (5p)  (non-perturbative polarization shell)
            splnorm:   0.15000    
               vcte:    40.000    
               rinn:    6.8700    
               qcoe:    0.0000    
               qyuk:    0.0000    
               qwid:   0.10000E-01
                rcs:    7.6257    
            lambdas:    1.0000    
L=2  Nsemic=0  Cnfigmx=4
          i=1  nzeta=2  polorb=0  (4d)
            splnorm:   0.15000    
               vcte:    40.000    
               rinn:    4.7999    
               qcoe:    0.0000    
               qyuk:    0.0000    
               qwid:   0.10000E-01
                rcs:    5.3279      3.4832    
            lambdas:    1.0000      1.0000    
-------------------------------------------------------------------------------
L=0  Nkbl=2  erefs: 0.17977+309 0.17977+309
L=1  Nkbl=2  erefs: 0.17977+309 0.17977+309
L=2  Nkbl=1  erefs: 0.17977+309
===============================================================================
</basis_specs>

<pseudopotential_header>
 Tc pw nrl pcec
 ONCVPSP-3.2018-03-09Hamann's oncvpsp                        
 4s 2.00  r= 1.40/4p 6.00  r= 1.40/4d 5.00  r= 1.36/                    4s:4p:4d:5s:
</pseudopotential_header>
</preamble>
Tc                            # Symbol
Tc                            # Label
   43                         # Atomic number
     15.0000000000                             # Valence charge
     97.9060000000        # Mass 
     297.994342856        # Self energy 
   2   7                      # Lmax for basis, no. of nl orbitals 
   2   6                      # Lmax for projectors, no. of nl KB projectors
# PAOs:__________________________
  0  4  1  0  2.000000   #orbital l, n, z, is_polarized, population
 500    0.5874219927166360E-02     2.931235743656014     # npts, delta, cutoff
     0.000000000000000        0.2345396534671620    
    0.5874219927166360E-02    0.2347110960422303    
    0.1174843985433272E-01    0.2352428465028046    
    0.1762265978149908E-01    0.2361286805373575    
    0.2349687970866544E-01    0.2373679609511033    
    0.2937109963583180E-01    0.2389597993868814    
    0.3524531956299816E-01    0.2409030553816049    
    0.4111953949016452E-01    0.2431963370537808    
    0.4699375941733088E-01    0.2458380021737021    
    0.5286797934449724E-01    0.2488261594769468    
    0.5874219927166360E-01    0.2521586701925992    
    0.6461641919882996E-01    0.2558331497776615    
    0.7049063912599632E-01    0.2598469698540136    
    0.7636485905316268E-01    0.2641972603457174    
    0.8223907898032905E-01    0.2688809118148711    
    0.8811329890749540E-01    0.2738945779942988    
    0.9398751883466176E-01    0.2792346785153303    
    0.9986173876182812E-01    0.2848974018288335    
    0.1057359586889945        0.2908787083175209    
    0.1116101786161608        0.2971743335974392    
    0.1174843985433272        0.3037797920064018    
    0.1233586184704936        0.3106903802769633    
    0.1292328383976599        0.3179011813913953    
    0.1351070583248263        0.3254070686159576    
    0.1409812782519926        0.3332027097115978    
    0.1468554981791590        0.3412825713180424    
    0.1527297181063254        0.3496409235080828    
    0.1586039380334917        0.3582718445086689    
    0.1644781579606581        0.3671692255852740    
    0.1703523778878245        0.3763267760857898    
    0.1762265978149908        0.3857380286400517    
    0.1821008177421572        0.3953963445108946    
    0.1879750376693235        0.4052949190924698    
    0.1938492575964899        0.4154267875513636    
    0.1997234775236562        0.4257848306058751    
    0.2055976974508226        0.4363617804386149    
    0.2114719173779890        0.4471502267374238    
    0.2173461373051553        0.4581426228593986    
    0.2232203572323217        0.4693312921126540    
    0.2290945771594881        0.4807084341502492    
    0.2349687970866544        0.4922661314705485    
    0.2408430170138208        0.5039963560180820    
    0.2467172369409871        0.5158909758788300    
    0.2525914568681535        0.5279417620636654    
    0.2584656767953198        0.5401403953735303    
    0.2643398967224862        0.5524784733397704    
    0.2702141166496526        0.5649475172328882    
    0.2760883365768189        0.5775389791328374    
    0.2819625565039853        0.5902442490538368    
    0.2878367764311516        0.6030546621165536    
    0.2937109963583180        0.6159615057603770    
    0.2995852162854843        0.6289560269883987    
    0.3054594362126507        0.6420294396375955    
    0.3113336561398171        0.6551729316666262    
    0.3172078760669835        0.6683776724535718    
    0.3230820959941498        0.6816348200958503    
    0.3289563159213162        0.6949355287045110    
    0.3348305358484825        0.7082709556850244    
    0.3407047557756489        0.7216322689966717    
    0.3465789757028153        0.7350106543825937    
    0.3524531956299816        0.7483973225625584    
    0.3583274155571480        0.7617835163804990    
    0.3642016354843143        0.7751605178988787    
    0.3700758554114807        0.7885196554319919    
    0.3759500753386470        0.8018523105103127    
    0.3818242952658134        0.8151499247681093    
    0.3876985151929798        0.8284040067465448    
    0.3935727351201461        0.8416061386046442    
    0.3994469550473125        0.8547479827305385    
    0.4053211749744788        0.8678212882455594    
    0.4111953949016452        0.8808178973938489    
    0.4170696148288116        0.8937297518103284    
    0.4229438347559779        0.9065488986599745    
    0.4288180546831443        0.9192674966415806    
    0.4346922746103106        0.9318778218493166    
    0.4405664945374770        0.9443722734856216    
    0.4464407144646434        0.9567433794191712    
    0.4523149343918098        0.9689838015818752    
    0.4581891543189761        0.9810863411991112    
    0.4640633742461425        0.9930439438476325    
    0.4699375941733088         1.004849704335857    
    0.4758118141004752         1.016496871401515    
    0.4816860340276415         1.027978852221890    
    0.4875602539548079         1.039289216732228    
    0.4934344738819743         1.050421701748119    
    0.4993086938091406         1.061370214888033    
    0.5051829137363070         1.072128838292447    
    0.5110571336634734         1.082691832136358    
    0.5169313535906397         1.093053637932300    
    0.5228055735178061         1.103208881621286    
    0.5286797934449724         1.113152376449490    
    0.5345540133721388         1.122879125628759    
    0.5404282332993051         1.132384324779442    
    0.5463024532264715         1.141663364154338    
    0.5521766731536378         1.150711830642924    
    0.5580508930808042         1.159525509555370    
    0.5639251130079705         1.168100386186200    
    0.5697993329351370         1.176432647157773    
    0.5756735528623033         1.184518681544169    
    0.5815477727894697         1.192355081776296    
    0.5874219927166360         1.199938644329506    
    0.5932962126438024         1.207266370195204    
    0.5991704325709687         1.214335465138366    
    0.6050446524981351         1.221143339743137    
    0.6109188724253014         1.227687609248989    
    0.6167930923524678         1.233966093180312    
    0.6226673122796341         1.239976814772443    
    0.6285415322068005         1.245718000197614    
    0.6344157521339669         1.251188077594399    
    0.6402899720611333         1.256385675904651    
    0.6461641919882997         1.261309623522049    
    0.6520384119154660         1.265958946756725    
    0.6579126318426324         1.270332868120597    
    0.6637868517697987         1.274430804438267    
    0.6696610716969651         1.278252364788573    
    0.6755352916241314         1.281797348282049    
    0.6814095115512978         1.285065741679720    
    0.6872837314784641         1.288057716858830    
    0.6931579514056305         1.290773628131269    
    0.6990321713327968         1.293214009420554    
    0.7049063912599632         1.295379571303360    
    0.7107806111871295         1.297271197921714    
    0.7166548311142960         1.298889943772040    
    0.7225290510414623         1.300237030377295    
    0.7284032709686287         1.301313842848544    
    0.7342774908957950         1.302121926342314    
    0.7401517108229614         1.302662982420139    
    0.7460259307501277         1.302938865316687    
    0.7519001506772941         1.302951578122904    
    0.7577743706044605         1.302703268890540    
    0.7636485905316268         1.302196226664456    
    0.7695228104587932         1.301432877449027    
    0.7753970303859595         1.300415780114919    
    0.7812712503131259         1.299147622252480    
    0.7871454702402922         1.297631215977840    
    0.7930196901674587         1.295869493697800    
    0.7988939100946250         1.293865503839464    
    0.8047681300217914         1.291622406550445    
    0.8106423499489577         1.289143469375365    
    0.8165165698761241         1.286432062914258    
    0.8223907898032904         1.283491656468337    
    0.8282650097304568         1.280325813678425    
    0.8341392296576231         1.276938188161244    
    0.8400134495847895         1.273332519148534    
    0.8458876695119558         1.269512627133883    
    0.8517618894391222         1.265482409531915    
    0.8576361093662885         1.261245836362324    
    0.8635103292934549         1.256806952621825    
    0.8693845492206212         1.252169856292294    
    0.8752587691477877         1.247338706983453    
    0.8811329890749541         1.242317722341866    
    0.8870072090021204         1.237111171389701    
    0.8928814289292868         1.231723370386515    
    0.8987556488564531         1.226158678734353    
    0.9046298687836195         1.220421494929196    
    0.9105040887107858         1.214516252561616    
    0.9163783086379522         1.208447416369305    
    0.9222525285651185         1.202219478343972    
    0.9281267484922849         1.195836953894933    
    0.9340009684194512         1.189304378071517    
    0.9398751883466177         1.182626301846285    
    0.9457494082737840         1.175807288460857    
    0.9516236282009504         1.168851909836003    
    0.9574978481281167         1.161764743047482    
    0.9633720680552831         1.154550366868989    
    0.9692462879824494         1.147213358383403    
    0.9751205079096158         1.139758289663396    
    0.9809947278367821         1.132189724522336    
    0.9868689477639485         1.124512215336299    
    0.9927431676911148         1.116730299937866    
    0.9986173876182812         1.108848498582281    
     1.004491607545448         1.100871310986456    
     1.010365827472614         1.092803213441168    
     1.016240047399780         1.084648655996753    
     1.022114267326947         1.076412059722484    
     1.027988487254113         1.068097814039739    
     1.033862707181279         1.059710274129023    
     1.039736927108446         1.051253758410820    
     1.045611147035612         1.042732546100182    
     1.051485366962778         1.034150874834956    
     1.057359586889945         1.025512938377448    
     1.063233806817111         1.016822884389317    
     1.069108026744278         1.008084812279466    
     1.074982246671444        0.9993027711246140    
     1.080856466598610        0.9904807576622899    
     1.086730686525777        0.9816227143558978    
     1.092604906452943        0.9727325275315227    
     1.098479126380109        0.9638140255861405    
     1.104353346307276        0.9548709772668631    
     1.110227566234442        0.9459070900208745    
     1.116101786161608        0.9369260084156923    
     1.121976006088775        0.9279313126293979    
     1.127850226015941        0.9189265170104929    
     1.133724445943108        0.9099150687070341    
     1.139598665870274        0.9009003463647093    
     1.145472885797440        0.8918856588935288    
     1.151347105724607        0.8828742443028216    
     1.157221325651773        0.8738692686042256    
     1.163095545578939        0.8648738247823912    
     1.168969765506106        0.8558909318330943    
     1.174843985433272        0.8469235338685122    
     1.180718205360438        0.8379744992893841    
     1.186592425287605        0.8290466200238125    
     1.192466645214771        0.8201426108324553    
     1.198340865141937        0.8112651086798732    
     1.204215085069104        0.8024166721717906    
     1.210089304996270        0.7935997810580523    
     1.215963524923437        0.7848168358010246    
     1.221837744850603        0.7760701572092084    
     1.227711964777769        0.7673619861358361    
     1.233586184704936        0.7586944832421831    
     1.239460404632102        0.7500697288253494    
     1.245334624559268        0.7414897227102277    
     1.251208844486435        0.7329563842053621    
     1.257083064413601        0.7244715521224045    
     1.262957284340767        0.7160369848588056    
     1.268831504267934        0.7076543605434111    
     1.274705724195100        0.6993252772445483    
     1.280579944122267        0.6910512532401863    
     1.286454164049433        0.6828337273497269    
     1.292328383976599        0.6746740593269157    
     1.298202603903766        0.6665735303133393    
     1.304076823830932        0.6585333433519377    
     1.309951043758098        0.6505546239598959    
     1.315825263685265        0.6426384207602648    
     1.321699483612431        0.6347857061715517    
     1.327573703539597        0.6269973771545492    
     1.333447923466764        0.6192742560155448    
     1.339322143393930        0.6116170912650400    
     1.345196363321096        0.6040265585310435    
     1.351070583248263        0.5965032615259427    
     1.356944803175429        0.5890477330645592    
     1.362819023102596        0.5816604360396428    
     1.368693243029762        0.5743417645705363    
     1.374567462956928        0.5670920455528061    
     1.380441682884095        0.5599115403459255    
     1.386315902811261        0.5528004451074283    
     1.392190122738427        0.5457588903544179    
     1.398064342665594        0.5387869418866847    
     1.403938562592760        0.5318846056962421    
     1.409812782519926        0.5250518354788938    
     1.415687002447093        0.5182885408641024    
     1.421561222374259        0.5115945964252893    
     1.427435442301425        0.5049698500470778    
     1.433309662228592        0.4984141294415161    
     1.439183882155758        0.4919272431756531    
     1.445058102082925        0.4855089799247070    
     1.450932322010091        0.4791591074177718    
     1.456806541937257        0.4728773737491249    
     1.462680761864424        0.4666635087030963    
     1.468554981791590        0.4605172249968067    
     1.474429201718756        0.4544382189784698    
     1.480303421645923        0.4484261714040557    
     1.486177641573089        0.4424807482214321    
     1.492051861500255        0.4366016013410272    
     1.497926081427422        0.4307883693769975    
     1.503800301354588        0.4250406783620964    
     1.509674521281755        0.4193581424378903    
     1.515548741208921        0.4137403645210728    
     1.521422961136087        0.4081869369462869    
     1.527297181063254        0.4026974418707995    
     1.533171400990420        0.3972714515079159    
     1.539045620917586        0.3919085297147106    
     1.544919840844753        0.3866082321681847    
     1.550794060771919        0.3813701068711252    
     1.556668280699085        0.3761936946689193    
     1.562542500626252        0.3710785297475691    
     1.568416720553418        0.3660241401134790    
     1.574290940480584        0.3610300480555513    
     1.580165160407751        0.3560957705901472    
     1.586039380334917        0.3512208198894238    
     1.591913600262084        0.3464047036935587    
     1.597787820189250        0.3416469257073725    
     1.603662040116416        0.3369469859818124    
     1.609536260043583        0.3323043812807808    
     1.615410479970749        0.3277186054337687    
     1.621284699897915        0.3231891496747201    
     1.627158919825082        0.3187155029675868    
     1.633033139752248        0.3142971523189736    
     1.638907359679415        0.3099335830782885    
     1.644781579606581        0.3056242792258053    
     1.650655799533747        0.3013687236490105    
     1.656530019460914        0.2971663984076164    
     1.662404239388080        0.2930167849876124    
     1.668278459315246        0.2889193645446978    
     1.674152679242413        0.2848736181374441    
     1.680026899169579        0.2808790269505294    
     1.685901119096745        0.2769350725083575    
     1.691775339023912        0.2730412368793861    
     1.697649558951078        0.2691970028714674    
     1.703523778878244        0.2654018542185020    
     1.709397998805411        0.2616552757586845    
     1.715272218732577        0.2579567536046386    
     1.721146438659743        0.2543057753056977    
     1.727020658586910        0.2507018300026048    
     1.732894878514076        0.2471444085748820    
     1.738769098441242        0.2436330037811231    
     1.744643318368409        0.2401671103924507    
     1.750517538295575        0.2367462253193643    
     1.756391758222742        0.2333698477322151    
     1.762265978149908        0.2300374791755262    
     1.768140198077074        0.2267486236763665    
     1.774014418004241        0.2235027878469900    
     1.779888637931407        0.2202994809819399    
     1.785762857858574        0.2171382151498134    
     1.791637077785740        0.2140185052798737    
     1.797511297712906        0.2109398692436925    
     1.803385517640073        0.2079018279320016    
     1.809259737567239        0.2049039053269258    
     1.815133957494405        0.2019456285697611    
     1.821008177421572        0.1990265280244592    
     1.826882397348738        0.1961461373369810    
     1.832756617275904        0.1933039934906602    
     1.838630837203071        0.1904996368577334    
     1.844505057130237        0.1877326112471731    
     1.850379277057403        0.1850024639489616    
     1.856253496984570        0.1823087457749417    
     1.862127716911736        0.1796510110963707    
     1.868001936838902        0.1770288178783037    
     1.873876156766069        0.1744417277109278    
     1.879750376693235        0.1718893058379620    
     1.885624596620402        0.1693711211822391    
     1.891498816547568        0.1668867463685771    
     1.897373036474734        0.1644357577440458    
     1.903247256401901        0.1620177353957358    
     1.909121476329067        0.1596322631661218    
     1.914995696256233        0.1572789286661268    
     1.920869916183400        0.1549573232859640    
     1.926744136110566        0.1526670422038678    
     1.932618356037733        0.1504076843927819    
     1.938492575964899        0.1481788526250989    
     1.944366795892065        0.1459801534755313    
     1.950241015819232        0.1438111973221892    
     1.956115235746398        0.1416715983459450    
     1.961989455673564        0.1395609745281579    
     1.967863675600731        0.1374789476468240    
     1.973737895527897        0.1354251432712294    
     1.979612115455063        0.1333991907551673    
     1.985486335382230        0.1314007232287826    
     1.991360555309396        0.1294293775891094    
     1.997234775236562        0.1274847944893592    
     2.003108995163729        0.1255666183270170    
     2.008983215090895        0.1236744972308051    
     2.014857435018062        0.1218080830465606    
     2.020731654945228        0.1199670313220898    
     2.026605874872394        0.1181510012910389    
     2.032480094799561        0.1163596558558366    
     2.038354314726727        0.1145926615697532    
     2.044228534653894        0.1128496886181201    
     2.050102754581060        0.1111304107987571    
     2.055976974508226        0.1094345055016439    
     2.061851194435393        0.1077616536878819    
     2.067725414362559        0.1061115398679822    
     2.073599634289725        0.1044838520795193    
     2.079473854216892        0.1028782818641837    
     2.085348074144058        0.1012945242442738    
     2.091222294071224        0.9973227769865614E-01
     2.097096513998391        0.9819124413822750E-01
     2.102970733925557        0.9667112888091189E-01
     2.108844953852723        0.9517164062622360E-01
     2.114719173779890        0.9369249142941885E-01
     2.120593393707056        0.9223339667527231E-01
     2.126467613634222        0.9079407505150096E-01
     2.132341833561389        0.8937424852186128E-01
     2.138216053488555        0.8797364229894564E-01
     2.144090273415721        0.8659198481670238E-01
     2.149964493342888        0.8522900770270091E-01
     2.155838713270054        0.8388444575016532E-01
     2.161712933197220        0.8255803688979879E-01
     2.167587153124387        0.8124952216141505E-01
     2.173461373051553        0.7995864568540280E-01
     2.179335592978719        0.7868515463403662E-01
     2.185209812905886        0.7742879920265440E-01
     2.191084032833052        0.7618933258072071E-01
     2.196958252760218        0.7496651092278851E-01
     2.202832472687385        0.7376009331937884E-01
     2.208706692614551        0.7256984176779294E-01
     2.214580912541718        0.7139552114286973E-01
     2.220455132468884        0.7023689916770554E-01
     2.226329352396050        0.6909374638434693E-01
     2.232203572323217        0.6796583612447128E-01
     2.238077792250383        0.6685294448006739E-01
     2.243952012177549        0.6575485027412570E-01
     2.249826232104716        0.6467133503135269E-01
     2.255700452031882        0.6360218294891828E-01
     2.261574671959049        0.6254718086724574E-01
     2.267448891886215        0.6150611824085648E-01
     2.273323111813381        0.6047878710927639E-01
     2.279197331740548        0.5946498206801436E-01
     2.285071551667714        0.5846450023962087E-01
     2.290945771594881        0.5747714124483431E-01
     2.296819991522047        0.5650270717382423E-01
     2.302694211449213        0.5554100255753608E-01
     2.308568431376380        0.5459183433914657E-01
     2.314442651303546        0.5365501184563785E-01
     2.320316871230712        0.5273034675948957E-01
     2.326191091157879        0.5181765309050407E-01
     2.332065311085045        0.5091674714776535E-01
     2.337939531012212        0.5002744751173351E-01
     2.343813750939378        0.4914957500648882E-01
     2.349687970866544        0.4828295267212157E-01
     2.355562190793711        0.4742740573727598E-01
     2.361436410720877        0.4658276159185291E-01
     2.367310630648043        0.4574884975987188E-01
     2.373184850575210        0.4492550187249979E-01
     2.379059070502376        0.4411255164124769E-01
     2.384933290429542        0.4330983483133811E-01
     2.390807510356709        0.4251718923524825E-01
     2.396681730283875        0.4173445464642900E-01
     2.402555950211041        0.4096147283320353E-01
     2.408430170138208        0.4019808751285021E-01
     2.414304390065374        0.3944414432586495E-01
     2.420178609992540        0.3869949081041388E-01
     2.426052829919707        0.3796397637697129E-01
     2.431927049846873        0.3723745228314659E-01
     2.437801269774039        0.3651977160870349E-01
     2.443675489701206        0.3581078923076906E-01
     2.449549709628372        0.3511036179923697E-01
     2.455423929555538        0.3441834771236401E-01
     2.461298149482705        0.3373460709256144E-01
     2.467172369409871        0.3305900176238153E-01
     2.473046589337037        0.3239139522069936E-01
     2.478920809264204        0.3173165261909279E-01
     2.484795029191370        0.3107964073841597E-01
     2.490669249118536        0.3043522796557225E-01
     2.496543469045703        0.2979828427048237E-01
     2.502417688972869        0.2916868118324991E-01
     2.508291908900036        0.2854629177152282E-01
     2.514166128827202        0.2793099061805187E-01
     2.520040348754368        0.2732265379844515E-01
     2.525914568681535        0.2672115885911725E-01
     2.531788788608701        0.2612638479543462E-01
     2.537663008535868        0.2553821203005499E-01
     2.543537228463034        0.2495652239146033E-01
     2.549411448390200        0.2438119909268356E-01
     2.555285668317367        0.2381212671022654E-01
     2.561159888244533        0.2324919116317100E-01
     2.567034108171699        0.2269227969247812E-01
     2.572908328098866        0.2214128084047867E-01
     2.578782548026032        0.2159608443055210E-01
     2.584656767953199        0.2105658154699105E-01
     2.590530987880365        0.2052266451505413E-01
     2.596405207807531        0.1999422688120133E-01
     2.602279427734698        0.1947116339351517E-01
     2.608153647661864        0.1895336998230258E-01
     2.614027867589030        0.1844074374087831E-01
     2.619902087516197        0.1793318290652821E-01
     2.625776307443363        0.1743058684164955E-01
     2.631650527370530        0.1693285601506903E-01
     2.637524747297696        0.1643989198353473E-01
     2.643398967224862        0.1595159737338295E-01
     2.649273187152029        0.1546787586237484E-01
     2.655147407079195        0.1498863216170651E-01
     2.661021627006361        0.1451377199978477E-01
     2.666895846933528        0.1404320219607643E-01
     2.672770066860694        0.1357683175988105E-01
     2.678644286787860        0.1311457679494305E-01
     2.684518506715027        0.1265637128630082E-01
     2.690392726642193        0.1220218175038203E-01
     2.696266946569359        0.1175202129499225E-01
     2.702141166496526        0.1130595958244754E-01
     2.708015386423692        0.1086412736436476E-01
     2.713889606350858        0.1042671593081353E-01
     2.719763826278025        0.9993972616693166E-02
     2.725638046205191        0.9566193676738706E-02
     2.731512266132357        0.9143715688747264E-02
     2.737386486059524        0.8726906382972383E-02
     2.743260705986690        0.8316155532844269E-02
     2.749134925913856        0.7911866321803847E-02
     2.755009145841023        0.7514447432954677E-02
     2.760883365768189        0.7124305987761925E-02
     2.766757585695355        0.6741841377781330E-02
     2.772631805622522        0.6367439979839943E-02
     2.778506025549688        0.6001470712054574E-02
     2.784380245476855        0.5644281369277947E-02
     2.790254465404021        0.5296195667301723E-02
     2.796128685331187        0.4957510922102522E-02
     2.802002905258354        0.4628496291244389E-02
     2.807877125185520        0.4309391507648169E-02
     2.813751345112686        0.4000406040201227E-02
     2.819625565039853        0.3701718620386864E-02
     2.825499784967019        0.3413477078719169E-02
     2.831374004894186        0.3135798438916789E-02
     2.837248224821352        0.2868769221087811E-02
     2.843122444748518        0.2612445907400389E-02
     2.848996664675685        0.2366855524298685E-02
     2.854870884602851        0.2131996293609457E-02
     2.860745104530017        0.1907838299691023E-02
     2.866619324457184        0.1694324109088823E-02
     2.872493544384350        0.1491369259272386E-02
     2.878367764311517        0.1298862496959816E-02
     2.884241984238683        0.1116665580361612E-02
     2.890116204165849        0.9446123341539643E-03
     2.895990424093016        0.7825063951976335E-03
     2.901864644020182        0.6301165494087658E-03
     2.907738863947348        0.4871672951509912E-03
     2.913613083874515        0.3533188933332282E-03
     2.919487303801681        0.2281203993299997E-03
     2.925361523728848        0.1108736703321604E-03
     2.931235743656014         0.000000000000000    
  0  5  1  0  2.000000   #orbital l, n, z, is_polarized, population
 500    0.1528189042493722E-01     7.625663322043671     # npts, delta, cutoff
     0.000000000000000        0.1016776194338411    
    0.1528189042493722E-01    0.1021752653061485    
    0.3056378084987443E-01    0.1036725889254233    