<preamble>

<basis_specs>
===============================================================================
Te                   Z=  52    Mass=  127.60        Charge= 0.17977+309
Lmxo=2 Lmxkb= 2    BasisType=split      Semic=T
L=0  Nsemic=0  Cnfigmx=5
          i=1  nzeta=2  polorb=0  (5s)
            splnorm:   0.15000    
               vcte:    40.000    
               rinn:    4.7473    
               qcoe:    0.0000    
               qyuk:    0.0000    
               qwid:   0.10000E-01
                rcs:    5.2748      3.6550    
            lambdas:    1.0000      1.0000    
L=1  Nsemic=0  Cnfigmx=5
          i=1  nzeta=2  polorb=0  (5p)  (to be polarized non-perturbatively)
            splnorm:   0.15000    
               vcte:    40.000    
               rinn:    6.0617    
               qcoe:    0.0000    
               qyuk:    0.0000    
               qwid:   0.10000E-01
                rcs:    6.7352      4.7528    
            lambdas:    1.0000      1.0000    
L=2  Nsemic=1  Cnfigmx=5
          i=1  nzeta=1  polorb=0  (4d)  (semicore shell)
            splnorm:   0.15000    
               vcte:    40.000    
               rinn:    2.7627    
               qcoe:    0.0000    
               qyuk:    0.0000    
               qwid:   0.10000E-01
                rcs:    3.0697    
            lambdas:    1.0000    
          i=2  nzeta=1  polorb=0  (5d)  (non-perturbative polarization shell)
            splnorm:   0.15000    
               vcte:    40.000    
               rinn:    6.0677    
               qcoe:    0.0000    
               qyuk:    0.0000    
               qwid:   0.10000E-01
                rcs:    6.7352    
            lambdas:    1.0000    
-------------------------------------------------------------------------------
L=0  Nkbl=1  erefs: 0.17977+309
L=1  Nkbl=1  erefs: 0.17977+309
L=2  Nkbl=2  erefs: 0.17977+309 0.17977+309
===============================================================================
</basis_specs>

<pseudopotential_header>
 Te pw nrl pcec
 ONCVPSP-3.2018-03-09Hamann's oncvpsp                        
 5s 2.00  r= 2.27/5p 4.00  r= 1.92/4d10.00  r= 1.81/                    4d:5s:5p:
</pseudopotential_header>
</preamble>
Te                            # Symbol
Te                            # Label
   52                         # Atomic number
     16.0000000000                             # Valence charge
     127.600000000        # Mass 
     230.234645544        # Self energy 
   2   6                      # Lmax for basis, no. of nl orbitals 
   2   6                      # Lmax for projectors, no. of nl KB projectors
# PAOs:__________________________
  0  5  1  0  2.000000   #orbital l, n, z, is_polarized, population
 500    0.1057068893542460E-01     5.274773778776876     # npts, delta, cutoff
     0.000000000000000        0.2409086166155067E-01
    0.1057068893542460E-01    0.2415580398131284E-01
    0.2114137787084920E-01    0.2435252899394497E-01
    0.3171206680627381E-01    0.2468031611646227E-01
    0.4228275574169841E-01    0.2513903252440508E-01
    0.5285344467712301E-01    0.2572849200390750E-01
    0.6342413361254762E-01    0.2644845441254076E-01
    0.7399482254797221E-01    0.2729862510775106E-01
    0.8456551148339682E-01    0.2827865427133321E-01
    0.9513620041882143E-01    0.2938813612690061E-01
    0.1057068893542460        0.3062660805503233E-01
    0.1162775782896706        0.3199354961294044E-01
    0.1268482672250952        0.3348838146670935E-01
    0.1374189561605198        0.3511046424509567E-01
    0.1479896450959444        0.3685909732469687E-01
    0.1585603340313690        0.3873351755702888E-01
    0.1691310229667936        0.4073289794870372E-01
    0.1797017119022182        0.4285634630647971E-01
    0.1902724008376429        0.4510290385944866E-01
    0.2008430897730674        0.4747154387104469E-01
    0.2114137787084920        0.4996117025389708E-01
    0.2219844676439167        0.5257061620080537E-01
    0.2325551565793413        0.5529864284529221E-01
    0.2431258455147658        0.5814393796528004E-01
    0.2536965344501905        0.6110511474344959E-01
    0.2642672233856150        0.6418071059776295E-01
    0.2748379123210397        0.6736918609548040E-01
    0.2854086012564643        0.7066892396376499E-01
    0.2959792901918888        0.7407822820965103E-01
    0.3065499791273135        0.7759532336175828E-01
    0.3171206680627381        0.8121835384566220E-01
    0.3276913569981627        0.8494538350428463E-01
    0.3382620459335873        0.8877439527405506E-01
    0.3488327348690119        0.9270329102690394E-01
    0.3594034238044365        0.9672989158740772E-01
    0.3699741127398611        0.1008519369335921    
    0.3805448016752857        0.1050670865890401    
    0.3911154906107103        0.1093729202130375    
    0.4016861795461349        0.1137669383945280    
    0.4122568684815595        0.1182465636546537    
    0.4228275574169841        0.1228091416616230    
    0.4333982463524087        0.1274519426605862    
    0.4439689352878333        0.1321721631201135    
    0.4545396242232579        0.1369669275957737    
    0.4651103131586825        0.1418332908101962    
    0.4756810020941071        0.1467682399478917    
    0.4862516910295317        0.1517686971619871    
    0.4968223799649563        0.1568315222889337    
    0.5073930689003809        0.1619535157661575    
    0.5179637578358055        0.1671314217465526    
    0.5285344467712301        0.1723619314026822    
    0.5391051357066547        0.1776416864125438    
    0.5496758246420793        0.1829672826177874    
    0.5602465135775039        0.1883352738443561    
    0.5708172025129286        0.1937421758746418    
    0.5813878914483531        0.1991844705594295    
    0.5919585803837777        0.2046586100571517    
    0.6025292693192024        0.2101610211872671    
    0.6130999582546269        0.2156881098839599    
    0.6236706471900515        0.2212362657357886    
    0.6342413361254762        0.2268018665964432    
    0.6448120250609007        0.2323812832513451    
    0.6553827139963253        0.2379708841245104    
    0.6659534029317500        0.2435670400098483    
    0.6765240918671745        0.2491661288108921    
    0.6870947808025991        0.2547645402728914    
    0.6976654697380238        0.2603586806911843    
    0.7082361586734484        0.2659449775798668    
    0.7188068476088729        0.2715198842849245    
    0.7293775365442976        0.2770798845262641    
    0.7399482254797222        0.2826214968533967    
    0.7505189144151467        0.2881412789999376    
    0.7610896033505714        0.2936358321225726    
    0.7716602922859960        0.2991018049106957    
    0.7822309812214205        0.3045358975535593    
    0.7928016701568452        0.3099348655524529    
    0.8033723590922698        0.3152955233662053    
    0.8139430480276943        0.3206147478791026    
    0.8245137369631190        0.3258894816811890    
    0.8350844258985436        0.3311167361518335    
    0.8456551148339682        0.3362935943383994    
    0.8562258037693928        0.3414172136228587    
    0.8667964927048174        0.3464848281702160    
    0.8773671816402420        0.3514937511536628    
    0.8879378705756666        0.3564413767524614    
    0.8985085595110912        0.3613251819196465    
    0.9090792484465158        0.3661427279177285    
    0.9196499373819405        0.3708916616216839    
    0.9302206263173650        0.3755697165896225    
    0.9407913152527896        0.3801747139025878    
    0.9513620041882143        0.3847045627760367    
    0.9619326931236388        0.3891572609465855    
    0.9725033820590634        0.3935308948386217    
    0.9830740709944881        0.3978236395163764    
    0.9936447599299126        0.4020337584280009    
     1.004215448865337        0.4061596029490833    
     1.014786137800762        0.4101996117339110    
     1.025356826736186        0.4141523098835753    
     1.035927515671611        0.4180163079407573    
     1.046498204607036        0.4217903007217368    
     1.057068893542460        0.4254730659967490    
     1.067639582477885        0.4290634630303954    
     1.078210271413309        0.4325604309942770    
     1.088780960348734        0.4359629872644321    
     1.099351649284159        0.4392702256164727    
     1.109922338219583        0.4424813143316052    
     1.120493027155008        0.4455954942268481    
     1.131063716090432        0.4486120766229039    
     1.141634405025857        0.4515304412631365    
     1.152205093961282        0.4543500341970513    
     1.162775782896706        0.4570703656415488    
     1.173346471832131        0.4596910078330111    
     1.183917160767555        0.4622115928829907    
     1.194487849702980        0.4646318106499229    
     1.205058538638405        0.4669514066388527    
     1.215629227573829        0.4691701799406812    
     1.226199916509254        0.4712879812218856    
     1.236770605444679        0.4733047107750366    
     1.247341294380103        0.4752203166397855    
     1.257911983315528        0.4770347928032690    
     1.268482672250952        0.4787481774881042    
     1.279053361186377        0.4803605515353508    
     1.289624050121801        0.4818720368889516    
     1.300194739057226        0.4832827951873115    
     1.310765427992651        0.4845930264667419    
     1.321336116928075        0.4858029679806046    
     1.331906805863500        0.4869128931370130    
     1.342477494798924        0.4879231105570372    
     1.353048183734349        0.4888339632543751    
     1.363618872669774        0.4896458279365243    
     1.374189561605198        0.4903591144265325    
     1.384760250540623        0.4909742652034847    
     1.395330939476048        0.4914917550589706    
     1.405901628411472        0.4919120908658999    
     1.416472317346897        0.4922358114551683    
     1.427043006282321        0.4924634875948656    
     1.437613695217746        0.4925957220659490    
     1.448184384153171        0.4926331493464074    
     1.458755073088595        0.4925764330175370    
     1.469325762024020        0.4924262698991199    
     1.479896450959444        0.4921833904281507    
     1.490467139894869        0.4918485588426379    
     1.501037828830293        0.4914225736608579    
     1.511608517765718        0.4909062681968626    
     1.522179206701143        0.4903005111019582    
     1.532749895636567        0.4896062069216353    
     1.543320584571992        0.4888242966572489    
     1.553891273507417        0.4879557583216405    
     1.564461962442841        0.4870016074778536    
     1.575032651378266        0.4859628977501343    
     1.585603340313690        0.4848407212965095    
     1.596174029249115        0.4836362092324120    
     1.606744718184540        0.4823505319950693    
     1.617315407119964        0.4809848996386853    
     1.627886096055389        0.4795405620508154    
     1.638456784990813        0.4780188090961195    
     1.649027473926238        0.4764209904352419    
     1.659598162861663        0.4747484557271144    
     1.670168851797087        0.4730026144870447    
     1.680739540732512        0.4711849156469605    
     1.691310229667936        0.4692968471413542    
     1.701880918603361        0.4673399353477612    
     1.712451607538786        0.4653157443922645    
     1.723022296474210        0.4632258753162797    
     1.733592985409635        0.4610719651017471    
     1.744163674345059        0.4588556855527186    
     1.754734363280484        0.4565787420322198    
     1.765305052215909        0.4542428720541757    
     1.775875741151333        0.4518498437310868    
     1.786446430086758        0.4494014540790680    
     1.797017119022182        0.4468995271827437    
     1.807587807957607        0.4443459122234388    
     1.818158496893032        0.4417424813749220    
     1.828729185828456        0.4390911275718277    
     1.839299874763881        0.4363937621568061    
     1.849870563699305        0.4336523124130586    
     1.860441252634730        0.4308687189899035    
     1.871011941570155        0.4280449332297017    
     1.881582630505579        0.4251829144050183    
     1.892153319441004        0.4222846268757436    
     1.902724008376429        0.4193520371763347    
     1.913294697311853        0.4163871110439138    
     1.923865386247278        0.4133918103984546    
     1.934436075182702        0.4103680902866791    
     1.945006764118127        0.4073178958016564    
     1.955577453053551        0.4042431589903354    
     1.966148141988976        0.4011457957614838    
     1.976718830924401        0.3980277028066971    
     1.987289519859825        0.3948907545471781    
     1.997860208795250        0.3917368001189764    
     2.008430897730674        0.3885676604094061    
     2.019001586666099        0.3853851251571322    
     2.029572275601524        0.3821909501282830    
     2.040142964536948        0.3789868543806484    
     2.050713653472373        0.3757745176277367    
     2.061284342407797        0.3725555777140190    
     2.071855031343222        0.3693316282122625    
     2.082425720278647        0.3661042161533431    
     2.092996409214071        0.3628748398983325    
     2.103567098149496        0.3596449471620701    
     2.114137787084920        0.3564159331967144    
     2.124708476020345        0.3531891391430835    
     2.135279164955770        0.3499658505568202    
     2.145849853891194        0.3467472961156145    
     2.156420542826619        0.3435346465129049    
     2.166991231762044        0.3403290135425976    
     2.177561920697468        0.3371314493784823    
     2.188132609632893        0.3339429460505596    
     2.198703298568317        0.3307644350491438    
     2.209273987503742        0.3275967872177715    
     2.219844676439167        0.3244408132268006    
     2.230415365374591        0.3212972642140052    
     2.240986054310016        0.3181668307874100    
     2.251556743245440        0.3150501421536804    
     2.262127432180865        0.3119477684372896    
     2.272698121116290        0.3088602279352773    
     2.283268810051714        0.3057879958260638    
     2.293839498987139        0.3027315131896662    
     2.304410187922563        0.2996911952401368    
     2.314980876857988        0.2966674370533401    
     2.325551565793412        0.2936606142498930    
     2.336122254728837        0.2906710818299331    
     2.346692943664262        0.2876991739199818    
     2.357263632599687        0.2847452049301504    
     2.367834321535111        0.2818094705951212    
     2.378405010470535        0.2788922485774125    
     2.388975699405960        0.2759937990223031    
     2.399546388341385        0.2731143651594610    
     2.410117077276809        0.2702541738892479    
     2.420687766212234        0.2674134363512034    
     2.431258455147658        0.2645923484756064    
     2.441829144083083        0.2617910915187098    
     2.452399833018508        0.2590098325820754    
     2.462970521953932        0.2562487251164381    
     2.473541210889357        0.2535079094105168    
     2.484111899824782        0.2507875130651743    
     2.494682588760206        0.2480876514533261    
     2.505253277695631        0.2454084281659850    
     2.515823966631055        0.2427499354448149    
     2.526394655566480        0.2401122546015714    
     2.536965344501905        0.2374954564247775    
     2.547536033437329        0.2348996015739970    
     2.558106722372754        0.2323247409620387    
     2.568677411308178        0.2297709161254324    
     2.579248100243603        0.2272381595834966    
     2.589818789179028        0.2247264951863194    
     2.600389478114452        0.2222359384519626    
     2.610960167049877        0.2197664968931845    
     2.621530855985301        0.2173181703339865    
     2.632101544920726        0.2148909512162576    
     2.642672233856151        0.2124848248968084    
     2.653242922791575        0.2100997699350559    
     2.663813611727000        0.2077357583716319    
     2.674384300662425        0.2053927559981698    
     2.684954989597849        0.2030707226185232    
     2.695525678533274        0.2007696123016582    
     2.706096367468698        0.1984893736264626    
     2.716667056404123        0.1962299499187002    
     2.727237745339548        0.1939912794803388    
     2.737808434274972        0.1917732958114727    
     2.748379123210396        0.1895759278250484    
     2.758949812145821        0.1873991000546143    
     2.769520501081246        0.1852427328552804    
     2.780091190016670        0.1831067425981051    
     2.790661878952095        0.1809910418580813    
     2.801232567887519        0.1788955395959285    
     2.811803256822944        0.1768201413338551    
     2.822373945758369        0.1747647493254838    
     2.832944634693793        0.1727292627201001    
     2.843515323629218        0.1707135777213974    
     2.854086012564643        0.1687175877408836    
     2.864656701500067        0.1667411835461003    
     2.875227390435492        0.1647842534038179    
     2.885798079370916        0.1628466832183495    
     2.896368768306341        0.1609283566651319    
     2.906939457241766        0.1590291553197173    
     2.917510146177190        0.1571489587823092    
     2.928080835112615        0.1552876447979810    
     2.938651524048039        0.1534450893727046    
     2.949222212983464        0.1516211668853161    
     2.959792901918889        0.1498157501955422    
     2.970363590854313        0.1480287107482076    
     2.980934279789738        0.1462599186737360    
     2.991504968725162        0.1445092428850630    
     3.002075657660587        0.1427765511710667    
     3.012646346596012        0.1410617102866222    
     3.023217035531436        0.1393645860393875    
     3.033787724466861        0.1376850433734178    
     3.044358413402286        0.1360229464497066    
     3.054929102337710        0.1343781587237496    
     3.065499791273135        0.1327505430202230    
     3.076070480208559        0.1311399616048669    
     3.086641169143984        0.1295462762536570    
     3.097211858079409        0.1279693483193547    
     3.107782547014833        0.1264090387955129    
     3.118353235950257        0.1248652083780205    
     3.128923924885682        0.1233377175242598    
     3.139494613821107        0.1218264265099555    
     3.150065302756532        0.1203311954837859    
     3.160635991691956        0.1188518845198254    
     3.171206680627381        0.1173883536678927    
     3.181777369562805        0.1159404630018659    
     3.192348058498230        0.1145080726660311    
     3.202918747433654        0.1130910429195292    
     3.213489436369079        0.1116892341789587    
     3.224060125304504        0.1103025070591961    
     3.234630814239928        0.1089307224124912    
     3.245201503175353        0.1075737413658911    
     3.255772192110777        0.1062314253570491    
     3.266342881046202        0.1049036361684724    
     3.276913569981627        0.1035902359602533    
     3.287484258917051        0.1022910873013410    
     3.298054947852476        0.1010060531993980    
     3.308625636787900        0.9973499712928650E-01
     3.319196325723325        0.9847778306023429E-01
     3.329767014658750        0.9723427548171872E-01
     3.340337703594174        0.9600433942811501E-01
     3.350908392529599        0.9478784050214945E-01
     3.361479081465024        0.9358464489719535E-01
     3.372049770400448        0.9239461941845402E-01
     3.382620459335873        0.9121763150305386E-01
     3.393191148271297        0.9005354923910867E-01
     3.403761837206722        0.8890224138376665E-01
     3.414332526142147        0.8776357738028677E-01
     3.424903215077571        0.8663742737417608E-01
     3.435473904012996        0.8552366222841984E-01
     3.446044592948420        0.8442215353783282E-01
     3.456615281883845        0.8333277364256467E-01
     3.467185970819270        0.8225539564078617E-01
     3.477756659754694        0.8118989340059009E-01
     3.488327348690119        0.8013614157112973E-01
     3.498898037625543        0.7909401559302638E-01
     3.509468726560968        0.7806339170806371E-01
     3.520039415496393        0.7704414696819897E-01
     3.530610104431817        0.7603615924392057E-01
     3.541180793367242        0.7503930723198773E-01
     3.551751482302667        0.7405347046250255E-01
     3.562322171238091        0.7307852930540977E-01
     3.572892860173515        0.7211436497645479E-01
     3.583463549108940        0.7116085954260834E-01
     3.594034238044365        0.7021789592693371E-01
     3.604604926979790        0.6928535791294176E-01
     3.615175615915214        0.6836313014846139E-01
     3.625746304850638        0.6745109814903343E-01
     3.636316993786063        0.6654914830085754E-01
     3.646887682721488        0.6565716786330329E-01
     3.657458371656912        0.6477504497099910E-01
     3.668029060592337        0.6390266863551711E-01
     3.678599749527762        0.6303992874666987E-01
     3.689170438463186        0.6218671607343351E-01
     3.699741127398611        0.6134292226451172E-01
     3.710311816334035        0.6050843984855536E-01
     3.720882505269460        0.5968316223405083E-01
     3.731453194204885        0.5886698370889119E-01
     3.742023883140309        0.5805979943964040E-01
     3.752594572075734        0.5726150547050705E-01
     3.763165261011158        0.5647199872203666E-01
     3.773735949946583        0.5569117698953341E-01
     3.784306638882008        0.5491893894122626E-01
     3.794877327817432        0.5415518411618633E-01
     3.805448016752857        0.5339981292200850E-01
     3.816018705688281        0.5265272663226622E-01
     3.826589394623706        0.5191382738374953E-01
     3.837160083559131        0.5118301817349661E-01
     3.847730772494555        0.5046020285562654E-01
     3.858301461429980        0.4974528613798368E-01
     3.868872150365405        0.4903817357860071E-01
     3.879442839300829        0.4833877158199033E-01
     3.890013528236254        0.4764698739527176E-01
     3.900584217171678        0.4696272910414180E-01
     3.911154906107103        0.4628590562869587E-01
     3.921725595042528        0.4561642671910762E-01
     3.932296283977952        0.4495420295117419E-01
     3.942866972913377        0.4429914572173227E-01
     3.953437661848801        0.4365116724395379E-01
     3.964008350784226        0.4301018054252553E-01
     3.974579039719651        0.4237609944871978E-01
     3.985149728655075        0.4174883859536153E-01
     3.995720417590500        0.4112831341169809E-01
     4.006291106525924        0.4051444011817648E-01
     4.016861795461349        0.3990713572113338E-01
     4.027432484396773        0.3930631800740389E-01
     4.038003173332198        0.3871190553885268E-01
     4.048573862267623        0.3812381764683325E-01
     4.059144551203048        0.3754197442657934E-01
     4.069715240138472        0.3696629673153264E-01
     4.080285929073897        0.3639670616761232E-01
     4.090856618009321        0.3583312508742872E-01
     4.101427306944745        0.3527547658444612E-01
     4.111997995880170        0.3472368448709873E-01
     4.122568684815595        0.3417767335286225E-01
     4.133139373751019        0.3363736846228640E-01
     4.143710062686444        0.3310269581298945E-01
     4.154280751621869        0.3257358211362035E-01
     4.164851440557293        0.3204995477778989E-01
     4.175422129492718        0.3153174191797501E-01
     4.185992818428143        0.3101887233939804E-01
     4.196563507363567        0.3051127553388544E-01
     4.207134196298992        0.3000888167370602E-01
     4.217704885234416        0.2951162160539431E-01
     4.228275574169841        0.2901942684355930E-01
     4.238846263105265        0.2853222956468157E-01
     4.249416952040690        0.2804996260090141E-01
     4.259987640976115        0.2757255943380041E-01
     4.270558329911539        0.2709995418817678E-01
     4.281129018846964        0.2663208162581921E-01
     4.291699707782389        0.2616887713927891E-01
     4.302270396717813        0.2571027674564260E-01
     4.312841085653238        0.2525621708030838E-01
     4.323411774588663        0.2480663539076578E-01
     4.333982463524087        0.2436146953038194E-01
     4.344553152459511        0.2392065795219482E-01
     4.355123841394936        0.2348413970271588E-01
     4.365694530330360        0.2305185441574368E-01
     4.376265219265785        0.2262374230618750E-01
     4.386835908201210        0.2219974416390603E-01
     4.397406597136635        0.2177980134755930E-01
     4.407977286072059        0.2136385577847603E-01
     4.418547975007484        0.2095184993453817E-01
     4.429118663942909        0.2054372684408249E-01
     4.439689352878333        0.2013943007982130E-01
     4.450260041813758        0.1973890375278241E-01
     4.460830730749183        0.1934209250626984E-01
     4.471401419684606        0.1894894150984644E-01
     4.481972108620031        0.1855939645333726E-01
     4.492542797555456        0.1817340354085782E-01
     4.503113486490880        0.1779090948486480E-01
     4.513684175426305        0.1741186150023152E-01
     4.524254864361730        0.1703620729834863E-01
     4.534825553297154        0.1666389508125017E-01
     4.545396242232579        0.1629487353576660E-01
     4.555966931168004        0.1592909182770334E-01
     4.566537620103428        0.1556649959604814E-01
     4.577108309038853        0.1520704694720520E-01
     4.587678997974278        0.1485068444925761E-01
     4.598249686909702        0.1449736312625903E-01
     4.608820375845126        0.1414703445255337E-01
     4.619391064780551        0.1379965034712488E-01
     4.629961753715976        0.1345516316797692E-01
     4.640532442651400        0.1311352570654126E-01
     4.651103131586825        0.1277469118211778E-01
     4.661673820522250        0.1243861323634376E-01
     4.672244509457674        0.1210524592769480E-01
     4.682815198393099        0.1177454372601588E-01
     4.693385887328524        0.1144646150708394E-01
     4.703956576263948        0.1112095454720103E-01
     4.714527265199373        0.1079797851781978E-01
     4.725097954134797        0.1047748948019884E-01
     4.735668643070222        0.1015944388009120E-01
     4.746239332005646        0.9843798542463271E-02
     4.756810020941071        0.9530510666245549E-02
     4.767380709876496        0.9219537819114961E-02
     4.777951398811920        0.8910837932380041E-02
     4.788522087747345        0.8604369309700700E-02
     4.799092776682770        0.8300090982416837E-02
     4.809663465618194        0.7997965336369980E-02
     4.820234154553619        0.7697966252485070E-02
     4.830804843489044        0.7400093056005968E-02
     4.841375532424468        0.7104386294299443E-02
     4.851946221359892        0.6810940611032073E-02
     4.862516910295317        0.6519912020770072E-02
     4.873087599230741        0.6231519164590060E-02
     4.883658288166166        0.5946039504288971E-02
     4.894228977101591        0.5663801910867346E-02
     4.904799666037015        0.5385177074575134E-02
     4.915370354972440        0.5110566908889659E-02
     4.925941043907865        0.4840393814683042E-02
     4.936511732843289        0.4575090394084116E-02
     4.947082421778714        0.4315089982842128E-02
     4.957653110714139        0.4060818206475950E-02
     4.968223799649564        0.3812685650473020E-02
     4.978794488584987        0.3571081657391194E-02
     4.989365177520412        0.3336369213962127E-02
     4.999935866455837        0.3108880861142597E-02
     5.010506555391261        0.2888915543414552E-02
     5.021077244326686        0.2676736306056845E-02
     5.031647933262111        0.2472568747453066E-02
     5.042218622197535        0.2276600135568420E-02
     5.052789311132960        0.2088979102016344E-02
     5.063360000068385        0.1909815832623356E-02
     5.073930689003809        0.1739182679384714E-02
     5.084501377939234        0.1577115124720338E-02
     5.095072066874659        0.1423613034633415E-02
     5.105642755810083        0.1278642142481425E-02
     5.116213444745507        0.1142135709311004E-02
     5.126784133680932        0.1013996309763100E-02
     5.137354822616357        0.8940976939103158E-03
     5.147925511551781        0.7822866742269526E-03
     5.158496200487206        0.6783849817157008E-03
     5.169066889422631        0.5821910232599225E-03
     5.179637578358055        0.4934814480984441E-03
     5.190208267293480        0.4120123837390859E-03
     5.200778956228905        0.3375201060623688E-03
     5.211349645164329        0.2697207066731117E-03
     5.221920334099754        0.2083078614521007E-03
     5.232491023035178        0.1529466431681845E-03
     5.243061711970602        0.1032579173657162E-03
     5.253632400906027        0.5877598086492913E-04
     5.264203089841452        0.1879228613377247E-04
     5.274773778776876         0.000000000000000    
  0  5  2  0  0.000000   #orbital l, n, z, is_polarized, population
 500    0.7324660159001259E-02     3.655005419341629     # npts, delta, cutoff
     0.000000000000000       -0.3833094255277675    
    0.7324660159001259E-02   -0.3832469255886317    
    0.1464932031800252E-01   -0.3830556163220343    
    0.2197398047700378E-01   -0.3827368068053392    
    0.2929864063600504E-01   -0.3822905581503520    
    0.3662330079500629E-01   -0.3817169554884159    
    0.4394796095400755E-01   -0.3810161083580130    
    0.5127262111300881E-01   -0.3801881508705653    
    0.5859728127201008E-01   -0.3792332418717967    
    0.6592194143101134E-01   -0.3781515651222870    