<preamble>

<basis_specs>
===============================================================================
Ti                   Z=  22    Mass=  47.867        Charge= 0.17977+309
Lmxo=2 Lmxkb= 2    BasisType=split      Semic=T
L=0  Nsemic=1  Cnfigmx=4
          i=1  nzeta=1  polorb=0  (3s)  (semicore shell)
            splnorm:   0.15000    
               vcte:    40.000    
               rinn:    2.6889    
               qcoe:    0.0000    
               qyuk:    0.0000    
               qwid:   0.10000E-01
                rcs:    2.9847    
            lambdas:    1.0000    
          i=2  nzeta=2  polorb=0  (4s)  (to be polarized non-perturbatively)
            splnorm:   0.15000    
               vcte:    40.000    
               rinn:    7.2517    
               qcoe:    0.0000    
               qyuk:    0.0000    
               qwid:   0.10000E-01
                rcs:    8.0493      5.8775    
            lambdas:    1.0000      1.0000    
L=1  Nsemic=1  Cnfigmx=4
          i=1  nzeta=1  polorb=0  (3p)  (semicore shell)
            splnorm:   0.15000    
               vcte:    40.000    
               rinn:    3.0298    
               qcoe:    0.0000    
               qyuk:    0.0000    
               qwid:   0.10000E-01
                rcs:    3.3665    
            lambdas:    1.0000    
          i=2  nzeta=1  polorb=0  (4p)  (non-perturbative polarization shell)
            splnorm:   0.15000    
               vcte:    40.000    
               rinn:    7.2517    
               qcoe:    0.0000    
               qyuk:    0.0000    
               qwid:   0.10000E-01
                rcs:    8.0493    
            lambdas:    1.0000    
L=2  Nsemic=0  Cnfigmx=3
          i=1  nzeta=2  polorb=0  (3d)
            splnorm:   0.15000    
               vcte:    40.000    
               rinn:    5.0973    
               qcoe:    0.0000    
               qyuk:    0.0000    
               qwid:   0.10000E-01
                rcs:    5.6580      3.6149    
            lambdas:    1.0000      1.0000    
-------------------------------------------------------------------------------
L=0  Nkbl=2  erefs: 0.17977+309 0.17977+309
L=1  Nkbl=2  erefs: 0.17977+309 0.17977+309
L=2  Nkbl=1  erefs: 0.17977+309
===============================================================================
</basis_specs>

<pseudopotential_header>
 Ti pw nrl pcec
 ONCVPSP-3.2018-03-09Hamann's oncvpsp                        
 3s 2.00  r= 1.36/3p 6.00  r= 1.31/3d 2.00  r= 1.66/                    3s:3p:3d:4s:
</pseudopotential_header>
</preamble>
Ti                            # Symbol
Ti                            # Label
   22                         # Atomic number
     12.0000000000                             # Valence charge
     47.8670000000        # Mass 
     175.946580953        # Self energy 
   2   7                      # Lmax for basis, no. of nl orbitals 
   2   6                      # Lmax for projectors, no. of nl KB projectors
# PAOs:__________________________
  0  3  1  0  2.000000   #orbital l, n, z, is_polarized, population
 500    0.5981277232514739E-02     2.984657339024855     # npts, delta, cutoff
     0.000000000000000        0.9598126976077377    
    0.5981277232514739E-02    0.9599000281011946    
    0.1196255446502948E-01    0.9602193727473249    
    0.1794383169754422E-01    0.9607513040873726    
    0.2392510893005896E-01    0.9614953177265705    
    0.2990638616257370E-01    0.9624507177587959    
    0.3588766339508843E-01    0.9636166120341026    
    0.4186894062760318E-01    0.9649919121874393    
    0.4785021786011791E-01    0.9665753344160850    
    0.5383149509263265E-01    0.9683654005595909    
    0.5981277232514740E-01    0.9703604393925779    
    0.6579404955766213E-01    0.9725585881055084    
    0.7177532679017687E-01    0.9749577939646424    
    0.7775660402269161E-01    0.9775558161473262    
    0.8373788125520636E-01    0.9803502277503952    
    0.8971915848772109E-01    0.9833384179701116    
    0.9570043572023583E-01    0.9865175944522599    
    0.1016817129527506        0.9898847858110210    
    0.1076629901852653        0.9934368443152348    
    0.1136442674177801        0.9971704487405365    
    0.1196255446502948         1.001082107385767    
    0.1256068218828095         1.005168161251879    
    0.1315880991153243         1.009424787381487    
    0.1375693763478390         1.013848002356967    
    0.1435506535803537         1.018433665954936    
    0.1495319308128685         1.023177484954708    
    0.1555132080453832         1.028075017098177    
    0.1614944852778980         1.033121675198377    
    0.1674757625104127         1.038312731393796    
    0.1734570397429274         1.043643321545315    
    0.1794383169754422         1.049108449772421    
    0.1854195942079569         1.054702993125182    
    0.1914008714404717         1.060421706388216    
    0.1973821486729864         1.066259227012701    
    0.2033634259055011         1.072210080172229    
    0.2093447031380159         1.078268683938111    
    0.2153259803705306         1.084429354569512    
    0.2213072576030453         1.090686311913549    
    0.2272885348355601         1.097033684910298    
    0.2332698120680748         1.103465517197401    
    0.2392510893005896         1.109975772808764    
    0.2452323665331043         1.116558341961608    
    0.2512136437656191         1.123207046925922    
    0.2571949209981338         1.129915647970151    
    0.2631761982306485         1.136677849376765    
    0.2691574754631633         1.143487305521110    
    0.2751387526956780         1.150337627006818    
    0.2811200299281927         1.157222386850791    
    0.2871013071607075         1.164135126710669    
    0.2930825843932222         1.171069363147463    
    0.2990638616257369         1.178018593915924    
    0.3050451388582517         1.184976304275055    
    0.3110264160907664         1.191935973311042    
    0.3170076933232812         1.198891080264768    
    0.3229889705557960         1.205835110855958    
    0.3289702477883107         1.212761563595931    
    0.3349515250208254         1.219663956080843    
    0.3409328022533402         1.226535831257257    
    0.3469140794858549         1.233370763651835    
    0.3528953567183696         1.240162365556917    
    0.3588766339508844         1.246904293163757    
    0.3648579111833991         1.253590252635175    
    0.3708391884159138         1.260214006109456    
    0.3768204656484286         1.266769377627312    
    0.3828017428809433         1.273250258973882    
    0.3887830201134581         1.279650615427723    
    0.3947642973459728         1.285964491408949    
    0.4007455745784875         1.292186016018758    
    0.4067268518110023         1.298309408462710    
    0.4127081290435170         1.304328983350340    
    0.4186894062760317         1.310239155863819    
    0.4246706835085465         1.316034446788613    
    0.4306519607410612         1.321709487399296    
    0.4366332379735759         1.327259024193898    
    0.4426145152060907         1.332677923470465    
    0.4485957924386055         1.337961175739721    
    0.4545770696711202         1.343103899968051    
    0.4605583469036350         1.348101347645324    
    0.4665396241361497         1.352948906672367    
    0.4725209013686644         1.357642105063244    
    0.4785021786011792         1.362176614457855    
    0.4844834558336939         1.366548253440689    
    0.4904647330662086         1.370752990661945    
    0.4964460102987234         1.374786947757639    
    0.5024272875312381         1.378646402065634    
    0.5084085647637528         1.382327789134987    
    0.5143898419962676         1.385827705026351    
    0.5203711192287823         1.389142908401600    
    0.5263523964612971         1.392270322401252    
    0.5323336736938118         1.395207036308646    
    0.5383149509263265         1.397950307000265    
    0.5442962281588413         1.400497560181996    
    0.5502775053913560         1.402846391411514    
    0.5562587826238707         1.404994566907407    
    0.5622400598563855         1.406940024146031    
    0.5682213370889002         1.408680872247504    
    0.5742026143214150         1.410215392152623    
    0.5801838915539297         1.411542036592887    
    0.5861651687864444         1.412659429856142    
    0.5921464460189592         1.413566367350805    
    0.5981277232514739         1.414261814971890    
    0.6041090004839886         1.414744908272460    
    0.6100902777165034         1.415014951444447    
    0.6160715549490181         1.415071416113072    
    0.6220528321815328         1.414913939949441    
    0.6280341094140476         1.414542325106125    
    0.6340153866465623         1.413956536480871    
    0.6399966638790772         1.413156699813776    
    0.6459779411115919         1.412143099623514    
    0.6519592183441066         1.410916176988466    
    0.6579404955766214         1.409476527178735    
    0.6639217728091361         1.407824897145245    
    0.6699030500416508         1.405962182872287    
    0.6758843272741656         1.403889426600004    
    0.6818656045066803         1.401607813923427    
    0.6878468817391951         1.399118670774798    
    0.6938281589717098         1.396423460295961    
    0.6998094362042245         1.393523779607711    
    0.7057907134367393         1.390421356482992    
    0.7117719906692540         1.387118045930891    
    0.7177532679017687         1.383615826698351    
    0.7237345451342835         1.379916797696555    
    0.7297158223667982         1.376023174358840    
    0.7356970995993130         1.371937284937019    
    0.7416783768318277         1.367661566742854    
    0.7476596540643424         1.363198562341406    
    0.7536409312968572         1.358550915702823    
    0.7596222085293719         1.353721368319083    
    0.7656034857618866         1.348712755291986    
    0.7715847629944014         1.343528001415210    
    0.7775660402269161         1.338170120963313    
    0.7835473174594308         1.332642203117802    
    0.7895285946919456         1.326947417162655    
    0.7955098719244603         1.321089006989921    
    0.8014911491569751         1.315070286362401    
    0.8074724263894898         1.308894634964870    
    0.8134537036220045         1.302565494471261    
    0.8194349808545193         1.296086364632484    
    0.8254162580870340         1.289460799389331    
    0.8313975353195487         1.282692403014688    
    0.8373788125520635         1.275784826289059    
    0.8433600897845782         1.268741762713143    
    0.8493413670170930         1.261566944761006    
    0.8553226442496077         1.254264140177128    
    0.8613039214821224         1.246837148320385    
    0.8672851987146372         1.239289796557793    
    0.8732664759471519         1.231625936710604    
    0.8792477531796666         1.223849441555128    
    0.8852290304121814         1.215964201380438    
    0.8912103076446961         1.207974120604880    
    0.8971915848772110         1.199883114453118    
    0.9031728621097257         1.191695105695235    
    0.9091541393422404         1.183414021449216    
    0.9151354165747552         1.175043790047952    
    0.9211166938072699         1.166588337971707    
    0.9270979710397846         1.158051586846865    
    0.9330792482722994         1.149437450511549    
    0.9390605255048141         1.140749832148604    
    0.9450418027373289         1.131992621486276    
    0.9510230799698436         1.123169692066768    
    0.9570043572023583         1.114284898582779    
    0.9629856344348731         1.105342074281957    
    0.9689669116673878         1.096345028439171    
    0.9749481888999025         1.087297543896336    
    0.9809294661324173         1.078203374669529    
    0.9869107433649320         1.069066243622980    
    0.9928920205974467         1.059889840209546    
    0.9988732978299615         1.050677818277158    
     1.004854575062476         1.041433793940727    
     1.010835852294991         1.032161343518970    
     1.016817129527506         1.022864001535562    
     1.022798406760020         1.013545258784055    
     1.028779683992535         1.004208560455952    
     1.034760961225050        0.9948573043313679    
     1.040742238457565        0.9854948390316917    
     1.046723515690079        0.9761244623336987    
     1.052704792922594        0.9667494195445804    
     1.058686070155109        0.9573729019373801    
     1.064667347387624        0.9479980452463739    
     1.070648624620138        0.9386279282219462    
     1.076629901852653        0.9292655712445996    
     1.082611179085168        0.9199139349977160    
     1.088592456317683        0.9105759191987947    
     1.094573733550197        0.9012543613889128    
     1.100555010782712        0.8919520357801958    
     1.106536288015227        0.8826716521611632    
     1.112517565247741        0.8734158548598373    
     1.118498842480256        0.8641872217645713    
     1.124480119712771        0.8549882634025872    
     1.130461396945286        0.8458214220762748    
     1.136442674177800        0.8366890710573305    
     1.142423951410315        0.8275935138388671    
     1.148405228642830        0.8185369834456619    
     1.154386505875345        0.8095216418027309    
     1.160367783107859        0.8005495791624677    
     1.166349060340374        0.7916228135905858    
     1.172330337572889        0.7827432905111510    
     1.178311614805404        0.7739128823109650    
     1.184292892037918        0.7651333880036113    
     1.190274169270433        0.7564065329534542    
     1.196255446502948        0.7477339686598686    
     1.202236723735463        0.7391172726020047    
     1.208218000967977        0.7305579481443284    
     1.214199278200492        0.7220574245031989    
     1.220180555433007        0.7136170567746941    
     1.226161832665521        0.7052381260238558    
     1.232143109898036        0.6969218394355096    
     1.238124387130551        0.6886693305267366    
     1.244105664363066        0.6804816594210532    
     1.250086941595580        0.6723598131842681    
     1.256068218828095        0.6643047062219443    
     1.262049496060610        0.6563171807383226    
     1.268030773293125        0.6483980072564685    
     1.274012050525639        0.6405478851993577    
     1.279993327758154        0.6327674435315157    
     1.285974604990669        0.6250572414607430    
     1.291955882223184        0.6174177691993747    
     1.297937159455699        0.6098494487844274    
     1.303918436688213        0.6023526349558982    
     1.309899713920728        0.5949276160923426    
     1.315880991153243        0.5875746151632480    
     1.321862268385757        0.5802937906593869    
     1.327843545618272        0.5730852380662240    
     1.333824822850787        0.5659489915512134    
     1.339806100083302        0.5588850247027213    
     1.345787377315816        0.5518932495794904    
     1.351768654548331        0.5449735172127520    
     1.357749931780846        0.5381256227195841    
     1.363731209013361        0.5313493140800415    
     1.369712486245875        0.5246443014564106    
     1.375693763478390        0.5180102671384021    
     1.381675040710905        0.5114468760900299    
     1.387656317943420        0.5049537815952427    
     1.393637595175934        0.4985306254232501    
     1.399618872408449        0.4921770362215958    
     1.405600149640964        0.4858926288522350    
     1.411581426873479        0.4796770057073014    
     1.417562704105993        0.4735297578928195    
     1.423543981338508        0.4674504659765195    
     1.429525258571023        0.4614387004809050    
     1.435506535803537        0.4554940224800415    
     1.441487813036052        0.4496159841878825    
     1.447469090268567        0.4438041295262966    
     1.453450367501082        0.4380579946698460    
     1.459431644733596        0.4323771085701897    
     1.465412921966111        0.4267609934607817    
     1.471394199198626        0.4212091653425060    
     1.477375476431141        0.4157211344508555    
     1.483356753663655        0.4102964057052866    
     1.489338030896170        0.4049344791412967    
     1.495319308128685        0.3996348503258290    
     1.501300585361200        0.3943970107565196    
     1.507281862593714        0.3892204482453518    
     1.513263139826229        0.3841046472872063    
     1.519244417058744        0.3790490894138313    
     1.525225694291259        0.3740532535336976    
     1.531206971523773        0.3691166162582303    
     1.537188248756288        0.3642386522148497    
     1.543169525988803        0.3594188343472859    
     1.549150803221317        0.3546566342035806    
     1.555132080453832        0.3499515222121931    
     1.561113357686347        0.3453029679466202    
     1.567094634918862        0.3407104403789056    
     1.573075912151376        0.3361734081224346    
     1.579057189383891        0.3316913396643569    
     1.585038466616406        0.3272637035880116    
     1.591019743848921        0.3228899687856853    
     1.597001021081435        0.3185696046620352    
     1.602982298313950        0.3143020813285102    
     1.608963575546465        0.3100868697890573    
     1.614944852778980        0.3059234421174465    
     1.620926130011494        0.3018112716264741    
     1.626907407244009        0.2977498330293464    
     1.632888684476524        0.2937386025935161    
     1.638869961709039        0.2897770582872204    
     1.644851238941553        0.2858646799189968    
     1.650832516174068        0.2820009492704111    
     1.656813793406583        0.2781853502222395    
     1.662795070639097        0.2744173688743415    
     1.668776347871612        0.2706964936594447    
     1.674757625104127        0.2670222154510520    
     1.680738902336642        0.2633940276656990    
     1.686720179569156        0.2598114263597461    
     1.692701456801671        0.2562739103209114    
     1.698682734034186        0.2527809811547312    
     1.704664011266701        0.2493321433661342    
     1.710645288499215        0.2459269044363072    
     1.716626565731730        0.2425647748950316    
     1.722607842964245        0.2392452683886371    
     1.728589120196760        0.2359679017437553    
     1.734570397429274        0.2327321950270188    
     1.740551674661789        0.2295376716008553    
     1.746532951894304        0.2263838581755261    
     1.752514229126819        0.2232702848575497    
     1.758495506359333        0.2201964851946470    
     1.764476783591848        0.2171619962173323    
     1.770458060824363        0.2141663584772906    
     1.776439338056877        0.2112091160826527    
     1.782420615289392        0.2082898167302945    
     1.788401892521907        0.2054080117352699    
     1.794383169754422        0.2025632560574917    
     1.800364446986937        0.1997551083257691    
     1.806345724219451        0.1969831308593021    
     1.812327001451966        0.1942468896867347    
     1.818308278684481        0.1915459545628652    
     1.824289555916996        0.1888798989831044    
     1.830270833149510        0.1862483001957778    
     1.836252110382025        0.1836507392123501    
     1.842233387614540        0.1810868008156649    
     1.848214664847055        0.1785560735662790    
     1.854195942079569        0.1760581498069668    
     1.860177219312084        0.1735926256654768    
     1.866158496544599        0.1711591010556072    
     1.872139773777113        0.1687571796766766    
     1.878121051009628        0.1663864690114578    
     1.884102328242143        0.1640465803226384    
     1.890083605474658        0.1617371286478767    
     1.896064882707172        0.1594577327935077    
     1.902046159939687        0.1572080153269657    
     1.908027437172202        0.1549876025679792    
     1.914008714404717        0.1527961245785931    
     1.919989991637231        0.1506332151520681    
     1.925971268869746        0.1484985118007183    
     1.931952546102261        0.1463916557427286    
     1.937933823334776        0.1443122918880020    
     1.943915100567290        0.1422600688230888    
     1.949896377799805        0.1402346387952339    
     1.955877655032320        0.1382356576955930    
     1.961858932264835        0.1362627850416565    
     1.967840209497349        0.1343156839589192    
     1.973821486729864        0.1323940211618397    
     1.979802763962379        0.1304974669341236    
     1.985784041194893        0.1286256951083672    
     1.991765318427408        0.1267783830450980    
     1.997746595659923        0.1249552116112424    
     2.003727872892437        0.1231558651580578    
     2.009709150124952        0.1213800314985572    
     2.015690427357467        0.1196274018844549    
     2.021671704589982        0.1178976709826676    
     2.027652981822496        0.1161905368513936    
     2.033634259055011        0.1145057009157997    
     2.039615536287526        0.1128428679433421    
     2.045596813520041        0.1112017460187441    
     2.051578090752556        0.1095820465186566    
     2.057559367985070        0.1079834840860256    
     2.063540645217585        0.1064057766041830    
     2.069521922450100        0.1048486451706913    
     2.075503199682615        0.1033118140709560    
     2.081484476915129        0.1017950107516275    
     2.087465754147644        0.1002979657938110    
     2.093447031380159        0.9882041288610599E-01
     2.099428308612674        0.9736208879748851E-01
     2.105409585845188        0.9592273335005547E-01
     2.111390863077703        0.9450208939164727E-01
     2.117372140310218        0.9309990276836480E-01
     2.123353417542733        0.9171592229699320E-01
     2.129334694775247        0.9034989973735182E-01
     2.135315972007762        0.8900158976457777E-01
     2.141297249240277        0.8767074994136388E-01
     2.147278526472792        0.8635714069015529E-01
     2.153259803705306        0.8506052526532537E-01
     2.159241080937821        0.8378066972533671E-01
     2.165222358170336        0.8251734290490062E-01
     2.171203635402851        0.8127031638714614E-01
     2.177184912635365        0.8003936447580841E-01
     2.183166189867880        0.7882426416744549E-01
     2.189147467100395        0.7762479512369609E-01
     2.195128744332909        0.7644073964358217E-01
     2.201110021565424        0.7527188263586984E-01
     2.207091298797939        0.7411801159149405E-01
     2.213072576030453        0.7297891655605644E-01
     2.219053853262968        0.7185439010240167E-01
     2.225035130495483        0.7074422730328267E-01
     2.231016407727998        0.6964822570411826E-01
     2.236997684960512        0.6856618529585203E-01
     2.242978962193027        0.6749790848791715E-01
     2.248960239425542        0.6644320008131446E-01
     2.254941516658057        0.6540186724180719E-01
     2.260922793890571        0.6437371947324033E-01
     2.266904071123086        0.6335856859098679E-01
     2.272885348355601        0.6235622869552816E-01
     2.278866625588116        0.6136651614617285E-01
     2.284847902820630        0.6038924953491404E-01
     2.290829180053145        0.5942424966043339E-01
     2.296810457285660        0.5847133950225650E-01
     2.302791734518175        0.5753034419506010E-01
     2.308773011750689        0.5660109100313695E-01
     2.314754288983204        0.5568340929501944E-01
     2.320735566215719        0.5477713051826377E-01
     2.326716843448234        0.5388208817440130E-01
     2.332698120680748        0.5299811779405835E-01
     2.338679397913263        0.5212505691224224E-01
     2.344660675145778        0.5126274504380402E-01
     2.350641952378293        0.5041102365907356E-01
     2.356623229610807        0.4956973615966979E-01
     2.362604506843322        0.4873872785449070E-01
     2.368585784075837        0.4791784593588187E-01
     2.374567061308352        0.4710693945598474E-01
     2.380548338540866        0.4630585930326953E-01
     2.386529615773381        0.4551445817924873E-01
     2.392510893005896        0.4473259057537657E-01
     2.398492170238411        0.4396011275013283E-01
     2.404473447470925        0.4319688270629256E-01
     2.410454724703440        0.4244276016838289E-01
     2.416436001935955        0.4169760656032642E-01
     2.422417279168469        0.4096128498327153E-01
     2.428398556400984        0.4023366019361284E-01
     2.434379833633499        0.3951459858119642E-01
     2.440361110866013        0.3880396814771588E-01
     2.446342388098528        0.3810163848529608E-01
     2.452323665331043        0.3740748075526392E-01
     2.458304942563558        0.3672136766710895E-01
     2.464286219796072        0.3604317345763028E-01
     2.470267497028587        0.3537277387027252E-01
     2.476248774261102        0.3471004613464806E-01
     2.482230051493617        0.3405486894624626E-01
     2.488211328726131        0.3340712244632969E-01
     2.494192605958646        0.3276668820201488E-01
     2.500173883191161        0.3213344918654012E-01
     2.506155160423676        0.3150728975971557E-01
     2.512136437656190        0.3088809564855852E-01
     2.518117714888705        0.3027575392811183E-01
     2.524098992121220        0.2967015300244316E-01
     2.530080269353735        0.2907118258582652E-01
     2.536061546586249        0.2847873368410400E-01
     2.542042823818764        0.2789269857622596E-01
     2.548024101051279        0.2731297079597091E-01
     2.554005378283794        0.2673944511384063E-01
     2.559986655516309        0.2617201751913405E-01
     2.565967932748823        0.2561058520219306E-01
     2.571949209981338        0.2505504653682433E-01
     2.577930487213853        0.2450530106289298E-01
     2.583911764446368        0.2396124946908712E-01
     2.589893041678882        0.2342279357585332E-01
     2.595874318911397        0.2288983631849928E-01
     2.601855596143912        0.2236228173046617E-01
     2.607836873376427        0.2184003492676460E-01
     2.613818150608941        0.2132300208757713E-01
     2.619799427841456        0.2081109044202308E-01
     2.625780705073971        0.2030420825208520E-01
     2.631761982306486        0.1980226479669728E-01
     2.637743259539000        0.1930517035598993E-01
     2.643724536771515        0.1881283619569480E-01
     2.649705814004029        0.1832517455170338E-01
     2.655687091236544        0.1784209861478190E-01
     2.661668368469059        0.1736352251543792E-01
     2.667649645701574        0.1688936130893874E-01
     2.673630922934088        0.1641953096048014E-01
     2.679612200166603        0.1595394833050180E-01
     2.685593477399118        0.1549253116015224E-01
     2.691574754631633        0.1503519805689564E-01
     2.697556031864147        0.1458186848026494E-01
     2.703537309096662        0.1413246272775569E-01
     2.709518586329177        0.1368690192239708E-01
     2.715499863561692        0.1324510808680460E-01
     2.721481140794206        0.1280700520165007E-01
     2.727462418026721        0.1237252392028794E-01
     2.733443695259236        0.1194161193606103E-01
     2.739424972491751        0.1151424806487162E-01
     2.745406249724265        0.1109045576446204E-01
     2.751387526956780        0.1067031271845441E-01
     2.757368804189295        0.1025395520206811E-01
     2.763350081421810        0.9841577555672667E-02
     2.769331358654324        0.9433427862553563E-02
     2.775312635886839        0.9029801090617908E-02
     2.781293913119354        0.8631030812927437E-02
     2.787275190351869        0.8237480371170967E-02
     2.793256467584383        0.7849534093951538E-02
     2.799237744816898        0.7467588970060050E-02
     2.805219022049413        0.7092047015285085E-02
     2.811200299281928        0.6723308455352658E-02
     2.817181576514442        0.6361765768346963E-02
     2.823162853746957        0.6007798578264364E-02
     2.829144130979472        0.5661769359409717E-02
     2.835125408211987        0.5324019893088091E-02
     2.841106685444501        0.4994868408995657E-02
     2.847087962677016        0.4674607340652563E-02
     2.853069239909531        0.4363501624912808E-02
     2.859050517142045        0.4061787478471649E-02
     2.865031794374560        0.3769671588335992E-02
     2.871013071607075        0.3487330657689708E-02
     2.876994348839589        0.3214911252996513E-02
     2.882975626072104        0.2952529902147835E-02
     2.888956903304619        0.2700273396688949E-02
     2.894938180537134        0.2458199253285714E-02
     2.900919457769648        0.2226336290213404E-02
     2.906900735002163        0.2004685273066868E-02
     2.912882012234678        0.1793219579027748E-02
     2.918863289467193        0.1591885818928337E-02
     2.924844566699707        0.1400604337542136E-02
     2.930825843932222        0.1219269478344605E-02
     2.936807121164737        0.1047749436235671E-02
     2.942788398397252        0.8858854025933423E-03
     2.948769675629766        0.7334894689332560E-03
     2.954750952862281        0.5903402448559514E-03
     2.960732230094796        0.4561739441215315E-03
     2.966713507327311        0.3306654850832383E-03
     2.972694784559825        0.2133839178733086E-03
     2.978676061792340        0.1036632200390393E-03
     2.984657339024855         0.000000000000000    
  0  4  1  0  2.000000   #orbital l, n, z, is_polarized, population
 500    0.1613091195121724E-01     8.049325063657403     # npts, delta, cutoff
     0.000000000000000        0.3792913948304290    
    0.1613091195121724E-01    0.3795201944900036    
    0.3226182390243448E-01    0.3802268931095999    