<preamble>

<basis_specs>
===============================================================================
Tl                   Z=  81    Mass=  204.38        Charge= 0.17977+309
Lmxo=2 Lmxkb= 2    BasisType=split      Semic=T
L=0  Nsemic=0  Cnfigmx=6
          i=1  nzeta=2  polorb=0  (6s)
            splnorm:   0.15000    
               vcte:    40.000    
               rinn:    5.5503    
               qcoe:    0.0000    
               qyuk:    0.0000    
               qwid:   0.10000E-01
                rcs:    6.1670      4.3385    
            lambdas:    1.0000      1.0000    
L=1  Nsemic=0  Cnfigmx=6
          i=1  nzeta=2  polorb=0  (6p)  (to be polarized non-perturbatively)
            splnorm:   0.15000    
               vcte:    40.000    
               rinn:    8.0878    
               qcoe:    0.0000    
               qyuk:    0.0000    
               qwid:   0.10000E-01
                rcs:    8.9864      6.5358    
            lambdas:    1.0000      1.0000    
L=2  Nsemic=1  Cnfigmx=6
          i=1  nzeta=1  polorb=0  (5d)  (semicore shell)
            splnorm:   0.15000    
               vcte:    40.000    
               rinn:    3.7814    
               qcoe:    0.0000    
               qyuk:    0.0000    
               qwid:   0.10000E-01
                rcs:    4.1973    
            lambdas:    1.0000    
          i=2  nzeta=1  polorb=0  (6d)  (non-perturbative polarization shell)
            splnorm:   0.15000    
               vcte:    40.000    
               rinn:    8.0959    
               qcoe:    0.0000    
               qyuk:    0.0000    
               qwid:   0.10000E-01
                rcs:    8.9864    
            lambdas:    1.0000    
-------------------------------------------------------------------------------
L=0  Nkbl=1  erefs: 0.17977+309
L=1  Nkbl=1  erefs: 0.17977+309
L=2  Nkbl=2  erefs: 0.17977+309 0.17977+309
===============================================================================
</basis_specs>

<pseudopotential_header>
 Tl pw nrl pcec
 ONCVPSP-3.2018-03-09Hamann's oncvpsp                        
 6s 2.00  r= 2.01/6p 1.00  r= 2.61/5d10.00  r= 2.01/                    5d:6s:6p:
</pseudopotential_header>
</preamble>
Tl                            # Symbol
Tl                            # Label
   81                         # Atomic number
     13.0000000000                             # Valence charge
     204.380000000        # Mass 
     134.575154265        # Self energy 
   2   6                      # Lmax for basis, no. of nl orbitals 
   2   6                      # Lmax for projectors, no. of nl KB projectors
# PAOs:__________________________
  0  6  1  0  2.000000   #orbital l, n, z, is_polarized, population
 500    0.1235868150307951E-01     6.166982070036674     # npts, delta, cutoff
     0.000000000000000        0.3973184526777751E-01
    0.1235868150307951E-01    0.3980700563662714E-01
    0.2471736300615901E-01    0.4003485874266118E-01
    0.3707604450923852E-01    0.4041392486278909E-01
    0.4943472601231803E-01    0.4094317330799948E-01
    0.6179340751539753E-01    0.4162116882492766E-01
    0.7415208901847704E-01    0.4244607892843583E-01
    0.8651077052155655E-01    0.4341568338576129E-01
    0.9886945202463605E-01    0.4452738570875875E-01
    0.1112281335277156        0.4577822657640416E-01
    0.1235868150307951        0.4716489910614705E-01
    0.1359454965338746        0.4868376588329196E-01
    0.1483041780369541        0.5033087764769245E-01
    0.1606628595400336        0.5210199352752419E-01
    0.1730215410431131        0.5399260270099644E-01
    0.1853802225461926        0.5599794735865762E-01
    0.1977389040492721        0.5811304683151701E-01
    0.2100975855523516        0.6033272274358969E-01
    0.2224562670554311        0.6265162504171319E-01
    0.2348149485585106        0.6506425875062406E-01
    0.2471736300615901        0.6756501129735037E-01
    0.2595323115646697        0.7014818024598690E-01
    0.2718909930677492        0.7280800128190631E-01
    0.2842496745708287        0.7553867628341902E-01
    0.2966083560739082        0.7833440131884487E-01
    0.3089670375769877        0.8118939440788882E-01
    0.3213257190800672        0.8409792288812364E-01
    0.3336844005831467        0.8705433023025071E-01
    0.3460430820862262        0.9005306214962747E-01
    0.3584017635893057        0.9308869186627819E-01
    0.3707604450923852        0.9615594437122497E-01
    0.3831191265954647        0.9924971956343992E-01
    0.3954778080985442        0.1023651141289930    
    0.4078364896016237        0.1054974420419981    
    0.4201951711047032        0.1086422535757027    
    0.4325538526077827        0.1117953527214484    
    0.4449125341108622        0.1149528129232129    
    0.4572712156139417        0.1181109910459440    
    0.4696298971170212        0.1212665395068626    
    0.4819885786201007        0.1244164165102634    
    0.4943472601231803        0.1275578943380102    
    0.5067059416262598        0.1306885656598424    
    0.5190646231293393        0.1338063478396841    
    0.5314233046324188        0.1369094852263311    
    0.5437819861354983        0.1399965494290793    
    0.5561406676385778        0.1430664375909935    
    0.5684993491416573        0.1461183686845134    
    0.5808580306447368        0.1491518778658883    
    0.5932167121478163        0.1521668089364386    
    0.6055753936508959        0.1551633049698027    
    0.6179340751539754        0.1581417971750646    
    0.6302927566570549        0.1611029920759147    
    0.6426514381601344        0.1640478570957047    
    0.6550101196632139        0.1669776046473566    
    0.6673688011662934        0.1698936748355372    
    0.6797274826693729        0.1727977168862460    
    0.6920861641724524        0.1756915694259484    
    0.7044448456755319        0.1785772397385832    
    0.7168035271786114        0.1814568821341359    
    0.7291622086816909        0.1843327755669873    
    0.7415208901847704        0.1872073006458732    
    0.7538795716878499        0.1900829161800306    
    0.7662382531909294        0.1929621354079286    
    0.7785969346940089        0.1958475020558945    
    0.7909556161970884        0.1987415663739472    
    0.8033142977001679        0.2016468612952233    
    0.8156729792032474        0.2045658788635825    
    0.8280316607063269        0.2075010470712796    
    0.8403903422094064        0.2104547072450337    
    0.8527490237124860        0.2134290921144547    
    0.8651077052155655        0.2164263046915895    
    0.8774663867186450        0.2194482980844319    
    0.8898250682217245        0.2224968563605609    
    0.9021837497248040        0.2255735765697643    
    0.9145424312278835        0.2286798520265488    
    0.9269011127309630        0.2318168569449306    
    0.9392597942340425        0.2349855325088882    
    0.9516184757371220        0.2381865744523938    
    0.9639771572402015        0.2414204222131015    
    0.9763358387432810        0.2446872497136069    
    0.9886945202463605        0.2479869578137869    
     1.001053201749440        0.2513191684671303    
     1.013411883252520        0.2546832206032792    
     1.025770564755599        0.2580781677482384    
     1.038129246258679        0.2615027773829877    
     1.050487927761758        0.2649555320306173    
     1.062846609264838        0.2684346320516083    
     1.075205290767917        0.2719380001166598    
     1.087563972270997        0.2754632873164893    
     1.099922653774076        0.2790078808584293    
     1.112281335277156        0.2825689132904512    
     1.124640016780235        0.2861432731844993    
     1.136998698283315        0.2897276172028086    
     1.149357379786394        0.2933183834632121    
     1.161716061289474        0.2969118061124036    
     1.174074742792553        0.3005039310097133    
     1.186433424295633        0.3040906324182396    
     1.198792105798712        0.3076676305951641    
     1.211150787301792        0.3112305101688260    
     1.223509468804871        0.3147747391865982    
     1.235868150307951        0.3182956887149062    
     1.248226831811030        0.3217886528707397    
     1.260585513314110        0.3252488691628911    
     1.272944194817189        0.3286715390207468    
     1.285302876320269        0.3320518483888944    
     1.297661557823348        0.3353849882669751    
     1.310020239326428        0.3386661750761755    
     1.322378920829507        0.3418906707364111    
     1.334737602332587        0.3450538023416623    
     1.347096283835666        0.3481509813249821    
     1.359454965338746        0.3511777220094416    
     1.371813646841825        0.3541296594465655    
     1.384172328344905        0.3570025664497750    
     1.396531009847984        0.3597923697367112    
     1.408889691351064        0.3624951651012641    
     1.421248372854143        0.3651072315434247    
     1.433607054357223        0.3676250442927843    
     1.445965735860302        0.3700452866695142    
     1.458324417363382        0.3723648607349269    
     1.470683098866461        0.3745808966921909    
     1.483041780369541        0.3766907610063882    
     1.495400461872620        0.3786920632217853    
     1.507759143375700        0.3805826614629330    
     1.520117824878779        0.3823606666148697    
     1.532476506381859        0.3840244451863116    
     1.544835187884938        0.3855726208681474    
     1.557193869388018        0.3870040748077966    
     1.569552550891097        0.3883179446279655    
     1.581911232394177        0.3895136222260095    
     1.594269913897256        0.3905907503974181    
     1.606628595400336        0.3915492183048284    
     1.618987276903415        0.3923891529701837    
     1.631345958406495        0.3931109141687964    
     1.643704639909574        0.3937150894839629    
     1.656063321412654        0.3942024850663017    
     1.668422002915734        0.3945741164679383    
     1.680780684418813        0.3948311987711204    
     1.693139365921893        0.3949751360954180    
     1.705498047424972        0.3950075105704310    
     1.717856728928052        0.3949300708627669    
     1.730215410431131        0.3947447203472458    
     1.742574091934211        0.3944535050128435    
     1.754932773437290        0.3940586011937759    
     1.767291454940370        0.3935623032153990    
     1.779650136443449        0.3929670110432382    
     1.792008817946529        0.3922752180214989    
     1.804367499449608        0.3914894987848475    
     1.816726180952688        0.3906124974241602    
     1.829084862455767        0.3896469159832732    
     1.841443543958847        0.3885955033596387    
     1.853802225461926        0.3874610446771765    
     1.866160906965006        0.3862463511945793    
     1.878519588468085        0.3849542584385337    
     1.890878269971165        0.3835876035411378    
     1.903236951474244        0.3821492124940895    
     1.915595632977324        0.3806419127896398    
     1.927954314480403        0.3790685174447909    
     1.940312995983483        0.3774318191277801    
     1.952671677486562        0.3757345851806435    
     1.965030358989642        0.3739795532221308    
     1.977389040492721        0.3721694270233456    
     1.989747721995801        0.3703068754404322    
     2.002106403498880        0.3683945329476421    
     2.014465085001960        0.3664349923779480    
     2.026823766505039        0.3644307902108787    
     2.039182448008118        0.3623843915899264    
     2.051541129511198        0.3602981789232473    
     2.063899811014278        0.3581744499552784    
     2.076258492517357        0.3560154229655273    
     2.088617174020436        0.3538232402417150    
     2.100975855523516        0.3515999695042542    
     2.113334537026596        0.3493476059249165    
     2.125693218529675        0.3470680743701957    
     2.138051900032754        0.3447632314862075    
     2.150410581535834        0.3424348677316307    
     2.162769263038914        0.3400847093623640    
     2.175127944541993        0.3377144203677946    
     2.187486626045072        0.3353256043590588    
     2.199845307548152        0.3329198064097377    
     2.212203989051232        0.3304985148495192    
     2.224562670554311        0.3280631630113975    
     2.236921352057391        0.3256151309330467    
     2.249280033560470        0.3231557470130400    
     2.261638715063550        0.3206862896226268    
     2.273997396566629        0.3182079886738175    
     2.286356078069709        0.3157220271445428    
     2.298714759572788        0.3132295425616853    
     2.311073441075868        0.3107316284427992    
     2.323432122578947        0.3082293356973420    
     2.335790804082027        0.3057236739882606    
     2.348149485585106        0.3032156130547751    
     2.360508167088186        0.3007060839972172    
     2.372866848591265        0.2981959805247725    
     2.385225530094345        0.2956861601669849    
     2.397584211597424        0.2931774454498735    
     2.409942893100504        0.2906706250375111    
     2.422301574603583        0.2881664548399100    
     2.434660256106663        0.2856656590880475    
     2.447018937609742        0.2831689313768613    
     2.459377619112822        0.2806769356770369    
     2.471736300615901        0.2781903073163894    
     2.484094982118981        0.2757096539316420    
     2.496453663622060        0.2732355563913842    
     2.508812345125140        0.2707685696909845    
     2.521171026628219        0.2683092238202135    
     2.533529708131299        0.2658580246043299    
     2.545888389634378        0.2634154545193535    
     2.558247071137458        0.2609819734822482    
     2.570605752640537        0.2585580196167182    
     2.582964434143617        0.2561440099953028    
     2.595323115646696        0.2537403413584456    
     2.607681797149776        0.2513473908111939    
     2.620040478652855        0.2489655164981763    
     2.632399160155935        0.2465950582574849    
     2.644757841659014        0.2442363382540730    
     2.657116523162094        0.2418896615932699    
     2.669475204665174        0.2395553169150021    
     2.681833886168253        0.2372335769692791    
     2.694192567671332        0.2349246991735073    
     2.706551249174412        0.2326289261521665    
     2.718909930677492        0.2303464862593845    
     2.731268612180571        0.2280775940849120    
     2.743627293683650        0.2258224509440007    
     2.755985975186730        0.2235812453516740    
     2.768344656689810        0.2213541534818580    
     2.780703338192889        0.2191413396118317    
     2.793062019695968        0.2169429565524436    
     2.805420701199048        0.2147591460645310    
     2.817779382702128        0.2125900392619607    
     2.830138064205207        0.2104357570016991    
     2.842496745708286        0.2082964102613181    
     2.854855427211366        0.2061721005043108    
     2.867214108714446        0.2040629200336031    
     2.879572790217525        0.2019689523336217    
     2.891931471720604        0.1998902724012687    
     2.904290153223684        0.1978269470661538    
     2.916648834726764        0.1957790353004100    
     2.929007516229843        0.1937465885184210    
     2.941366197732922        0.1917296508667725    
     2.953724879236002        0.1897282595047303    
     2.966083560739082        0.1877424448755442    
     2.978442242242161        0.1857722309688602    
     2.990800923745240        0.1838176355745210    
     3.003159605248320        0.1818786705280251    
     3.015518286751400        0.1799553419479012    
     3.027876968254479        0.1780476504652600    
     3.040235649757558        0.1761555914457558    
     3.052594331260638        0.1742791552042125    
     3.064953012763718        0.1724183272121282    
     3.077311694266797        0.1705730882982963    
     3.089670375769876        0.1687434148427485    
     3.102029057272956        0.1669292789642404    
     3.114387738776036        0.1651306487014728    
     3.126746420279115        0.1633474881882580    
     3.139105101782194        0.1615797578228091    
     3.151463783285274        0.1598274144313519    
     3.163822464788354        0.1580904114262261    
     3.176181146291433        0.1563686989586611    
     3.188539827794513        0.1546622240663851    
     3.200898509297592        0.1529709308162409    
     3.213257190800672        0.1512947604419571    
     3.225615872303751        0.1496336514772380    
     3.237974553806831        0.1479875398843111    
     3.250333235309910        0.1463563591780844    
     3.262691916812990        0.1447400405460491    
     3.275050598316069        0.1431385129640620    
     3.287409279819149        0.1415517033081433    
     3.299767961322228        0.1399795364624108    
     3.312126642825308        0.1384219354232776    
     3.324485324328387        0.1368788214000322    
     3.336844005831467        0.1353501139119122    
     3.349202687334546        0.1338357308817906    
     3.361561368837626        0.1323355887265745    
     3.373920050340705        0.1308496024444292    
     3.386278731843785        0.1293776856989229    
     3.398637413346864        0.1279197509001934    
     3.410996094849944        0.1264757092832325    
     3.423354776353023        0.1250454709833794    
     3.435713457856103        0.1236289451091108    
     3.448072139359182        0.1222260398122185    
     3.460430820862262        0.1208366623554548    
     3.472789502365341        0.1194607191777280    
     3.485148183868421        0.1180981159569277    
     3.497506865371500        0.1167487576704540    
     3.509865546874580        0.1154125486535261    
     3.522224228377659        0.1140893926553425    
     3.534582909880739        0.1127791928931596    
     3.546941591383818        0.1114818521043564    
     3.559300272886898        0.1101972725965531    
     3.571658954389977        0.1089253562958431    
     3.584017635893057        0.1076660047932003    
     3.596376317396136        0.1064191193891214    
     3.608734998899216        0.1051846011365606    
     3.621093680402296        0.1039623508822103    
     3.633452361905375        0.1027522693061834    
     3.645811043408454        0.1015542569601496    
     3.658169724911534        0.1003682143039710    
     3.670528406414614        0.9919404174089377E-01
     3.682887087917693        0.9803163965133699E-01
     3.695245769420772        0.9688090842532582E-01
     3.707604450923852        0.9574174849361441E-01
     3.719963132426932        0.9461406035754082E-01
     3.732321813930011        0.9349774461765535E-01
     3.744680495433090        0.9239270200116234E-01
     3.757039176936170        0.9129883338821489E-01
     3.769397858439250        0.9021603983710032E-01
     3.781756539942329        0.8914422260835221E-01
     3.794115221445408        0.8808328318782606E-01
     3.806473902948488        0.8703312330876969E-01
     3.818832584451568        0.8599364497292587E-01
     3.831191265954647        0.8496475047069575E-01
     3.843549947457726        0.8394634240039657E-01
     3.855908628960806        0.8293832368664279E-01
     3.868267310463886        0.8194059759787932E-01
     3.880625991966965        0.8095306776309712E-01
     3.892984673470044        0.7997563818775678E-01
     3.905343354973124        0.7900821326894755E-01
     3.917702036476204        0.7805069780980797E-01
     3.930060717979283        0.7710299703323063E-01
     3.942419399482362        0.7616501659487922E-01
     3.954778080985442        0.7523666259553742E-01
     3.967136762488522        0.7431784159281499E-01
     3.979495443991601        0.7340846061223209E-01
     3.991854125494681        0.7250842715770124E-01
     4.004212806997760        0.7161764922143128E-01
     4.016571488500840        0.7073603529327048E-01
     4.028930170003919        0.6986349436950823E-01
     4.041288851506999        0.6899993596115564E-01
     4.053647533010079        0.6814527010172151E-01
     4.066006214513158        0.6729940735450204E-01
     4.078364896016237        0.6646225881940188E-01
     4.090723577519316        0.6563373613929983E-01
     4.103082259022396        0.6481375150598076E-01
     4.115440940525476        0.6400221766564328E-01
     4.127799622028555        0.6319904792400212E-01
     4.140158303531635        0.6240415615099777E-01
     4.152516985034715        0.6161745678512763E-01
     4.164875666537794        0.6083886483741405E-01
     4.177234348040873        0.6006829589501909E-01
     4.189593029543953        0.5930566612452082E-01
     4.201951711047032        0.5855089227486324E-01
     4.214310392550112        0.5780389167999189E-01
     4.226669074053191        0.5706458226118581E-01
     4.239027755556271        0.5633288252910017E-01
     4.251386437059351        0.5560871158552713E-01
     4.263745118562430        0.5489198912488560E-01
     4.276103800065509        0.5418263543544745E-01
     4.288462481568589        0.5348057140031549E-01
     4.300821163071668        0.5278571849816119E-01
     4.313179844574748        0.5209799880372974E-01
     4.325538526077827        0.5141733498812606E-01
     4.337897207580907        0.5074365031888210E-01
     4.350255889083987        0.5007686865981582E-01
     4.362614570587066        0.4941691447069665E-01
     4.374973252090145        0.4876371280674296E-01
     4.387331933593225        0.4811718931790464E-01
     4.399690615096304        0.4747727024793325E-01
     4.412049296599384        0.4684388243333465E-01
     4.424407978102463        0.4621695330217926E-01
     4.436766659605543        0.4559641087276029E-01
     4.449125341108623        0.4498218375206404E-01
     4.461484022611702        0.4437420113410898E-01
     4.473842704114781        0.4377239279814917E-01
     4.486201385617861        0.4317668910674248E-01
     4.498560067120940        0.4258702100370416E-01
     4.510918748624020        0.4200332001194055E-01
     4.523277430127099        0.4142551823116587E-01
     4.535636111630179        0.4085354833551151E-01
     4.547994793133259        0.4028734357103120E-01
     4.560353474636338        0.3972683775310571E-01
     4.572712156139417        0.3917196526375474E-01
     4.585070837642497        0.3862266104885715E-01
     4.597429519145576        0.3807886061528614E-01
     4.609788200648656        0.3754050002796229E-01
     4.622146882151736        0.3700751590682903E-01
     4.634505563654815        0.3647984542375406E-01
     4.646864245157895        0.3595742629936061E-01
     4.659222926660974        0.3544019679979268E-01
     4.671581608164053        0.3492809573341649E-01
     4.683940289667133        0.3442106244746252E-01
     4.696298971170212        0.3391903682461178E-01
     4.708657652673292        0.3342195927952775E-01
     4.721016334176372        0.3292977075533891E-01
     4.733375015679451        0.3244241272007368E-01
     4.745733697182531        0.3195982716305068E-01
     4.758092378685610        0.3148195659122782E-01
     4.770451060188690        0.3100874402551161E-01
     4.782809741691769        0.3054013299703054E-01
     4.795168423194848        0.3007606754337380E-01
     4.807527104697928        0.2961649220479871E-01
     4.819885786201008        0.2916135202040817E-01
     4.832244467704087        0.2871059252430195E-01
     4.844603149207167        0.2826415974170099E-01
     4.856961830710246        0.2782200018505026E-01
     4.869320512213326        0.2738406085010024E-01
     4.881679193716405        0.2695028921196792E-01
     4.894037875219484        0.2652063322118188E-01
     4.906396556722564        0.2609504129971135E-01
     4.918755238225644        0.2567346233698042E-01
     4.931113919728723        0.2525584568587113E-01
     4.943472601231803        0.2484214115871518E-01
     4.955831282734882        0.2443229902327633E-01
     4.968189964237962        0.2402626999872534E-01
     4.980548645741041        0.2362400525160829E-01
     4.992907327244120        0.2322545639180981E-01
     5.005266008747200        0.2283057546851276E-01
     5.017624690250280        0.2243931496615505E-01
     5.029983371753359        0.2205162780038562E-01
     5.042342053256439        0.2166746731401946E-01
     5.054700734759519        0.2128678727299416E-01
     5.067059416262598        0.2090954186232854E-01
     5.079418097765677        0.2053568568208323E-01
     5.091776779268756        0.2016517374332624E-01
     5.104135460771836        0.1979796146410294E-01
     5.116494142274916        0.1943400466541152E-01
     5.128852823777995        0.1907325956718552E-01
     5.141211505281075        0.1871568278428323E-01
     5.153570186784155        0.1836123132248573E-01
     5.165928868287234        0.1800986257450318E-01
     5.178287549790313        0.1766153431599131E-01
     5.190646231293393        0.1731620470157822E-01
     5.203004912796472        0.1697383226090129E-01
     5.215363594299552        0.1663437589465631E-01
     5.227722275802631        0.1629779487065884E-01
     5.240080957305711        0.1596404881991742E-01
     5.252439638808791        0.1563309773272080E-01
     5.264798320311870        0.1530490195473823E-01
     5.277157001814949        0.1497942218313455E-01
     5.289515683318029        0.1465661946269887E-01
     5.301874364821108        0.1433645518198970E-01
     5.314233046324188        0.1401889106949387E-01
     5.326591727827267        0.1370388918980262E-01
     5.338950409330347        0.1339141193980335E-01
     5.351309090833427        0.1308142204488745E-01
     5.363667772336506        0.1277388255517560E-01
     5.376026453839585        0.1246875684175956E-01
     5.388385135342665        0.1216600859296225E-01
     5.400743816845744        0.1186560181061421E-01
     5.413102498348824        0.1156750080634901E-01
     5.425461179851903        0.1127167019791634E-01
     5.437819861354983        0.1097807490551331E-01
     5.450178542858063        0.1068668014813453E-01
     5.462537224361142        0.1039745143994021E-01
     5.474895905864221        0.1011035458664440E-01
     5.487254587367301        0.9825355681920387E-02
     5.499613268870380        0.9542421103826927E-02
     5.511971950373460        0.9261517511252627E-02
     5.524330631876539        0.8982611840380057E-02
     5.536689313379619        0.8705671301169124E-02
     5.549047994882699        0.8430663373859917E-02
     5.561406676385778        0.8157555805495480E-02
     5.573765357888858        0.7886316606463314E-02
     5.586124039391937        0.7616914047128236E-02
     5.598482720895016        0.7349316668273338E-02
     5.610841402398096        0.7083493637508835E-02
     5.623200083901176        0.6819417370420028E-02
     5.635558765404255        0.6557071637704532E-02
     5.647917446907335        0.6296465422636312E-02
     5.660276128410414        0.6037648530566256E-02
     5.672634809913494        0.5780724222727796E-02
     5.684993491416573        0.5525856198526746E-02
     5.697352172919652        0.5273269531904348E-02
     5.709710854422732        0.5023246542549099E-02
     5.722069535925812        0.4776119076575850E-02
     5.734428217428891        0.4532258638472226E-02
     5.746786898931971        0.4292065557351972E-02
     5.759145580435050        0.4055958061247047E-02
     5.771504261938130        0.3824361853781313E-02
     5.783862943441209        0.3597700564638161E-02
     5.796221624944288        0.3376387279819742E-02
     5.808580306447368        0.3160817241068080E-02
     5.820938987950448        0.2951361725065372E-02
     5.833297669453527        0.2748363062188755E-02
     5.845656350956607        0.2552130723586626E-02
     5.858015032459686        0.2362938388074982E-02
     5.870373713962766        0.2181021892350893E-02
     5.882732395465845        0.2006577966129499E-02
     5.895091076968924        0.1839763655809519E-02
     5.907449758472004        0.1680696344642035E-02
     5.919808439975084        0.1529454283068156E-02
     5.932167121478163        0.1386077549203123E-02
     5.944525802981243        0.1250569365884199E-02
     5.956884484484323        0.1122897706929278E-02
     5.969243165987402        0.1002997131003065E-02
     5.981601847490481        0.8907707865204418E-03
     5.993960528993560        0.7860925350458780E-03
     6.006319210496640        0.6888091432782132E-03
     6.018677891999720        0.5987424942941866E-03
     6.031036573502799        0.5156917660657253E-03
     6.043395255005879        0.4394355168980785E-03
     6.055753936508959        0.3697336004574839E-03
     6.068112618012038        0.3063287958344375E-03
     6.080471299515117        0.2489479641006174E-03
     6.092829981018197        0.1973023838410461E-03
     6.105188662521276        0.1510865536799468E-03
     6.117547344024356        0.1099738227071006E-03
     6.129906025527435        0.7360447787492950E-04
     6.142264707030515        0.4155232618158567E-04
     6.154623388533595        0.1319933775120777E-04
     6.166982070036674         0.000000000000000    
  0  6  2  0  0.000000   #orbital l, n, z, is_polarized, population
 500    0.8694378807942452E-02     4.338495025163283     # npts, delta, cutoff
     0.000000000000000       -0.2555642234195210    
    0.8694378807942452E-02   -0.2554901931139254    
    0.1738875761588490E-01   -0.2552630780424288    
    0.2608313642382735E-01   -0.2548848877665609    
    0.3477751523176981E-01   -0.2543561260979817    
    0.4347189403971226E-01   -0.2536774959688341    
    0.5216627284765471E-01   -0.2528498979525697    
    0.6086065165559716E-01   -0.2518744279963553    
    0.6955503046353961E-01   -0.2507523746179246    
    0.7824940927148206E-01   -0.2494852156024939    