<preamble>

<basis_specs>
===============================================================================
V                    Z=  23    Mass=  50.942        Charge= 0.17977+309
Lmxo=2 Lmxkb= 2    BasisType=split      Semic=T
L=0  Nsemic=1  Cnfigmx=4
          i=1  nzeta=1  polorb=0  (3s)  (semicore shell)
            splnorm:   0.15000    
               vcte:    40.000    
               rinn:    2.5599    
               qcoe:    0.0000    
               qyuk:    0.0000    
               qwid:   0.10000E-01
                rcs:    2.8443    
            lambdas:    1.0000    
          i=2  nzeta=2  polorb=0  (4s)  (to be polarized non-perturbatively)
            splnorm:   0.15000    
               vcte:    40.000    
               rinn:    7.0019    
               qcoe:    0.0000    
               qyuk:    0.0000    
               qwid:   0.10000E-01
                rcs:    7.7799      5.6353    
            lambdas:    1.0000      1.0000    
L=1  Nsemic=1  Cnfigmx=4
          i=1  nzeta=1  polorb=0  (3p)  (semicore shell)
            splnorm:   0.15000    
               vcte:    40.000    
               rinn:    2.8701    
               qcoe:    0.0000    
               qyuk:    0.0000    
               qwid:   0.10000E-01
                rcs:    3.1890    
            lambdas:    1.0000    
          i=2  nzeta=1  polorb=0  (4p)  (non-perturbative polarization shell)
            splnorm:   0.15000    
               vcte:    40.000    
               rinn:    7.0089    
               qcoe:    0.0000    
               qyuk:    0.0000    
               qwid:   0.10000E-01
                rcs:    7.7799    
            lambdas:    1.0000    
L=2  Nsemic=0  Cnfigmx=3
          i=1  nzeta=2  polorb=0  (3d)
            splnorm:   0.15000    
               vcte:    40.000    
               rinn:    4.7094    
               qcoe:    0.0000    
               qyuk:    0.0000    
               qwid:   0.10000E-01
                rcs:    5.2327      3.2864    
            lambdas:    1.0000      1.0000    
-------------------------------------------------------------------------------
L=0  Nkbl=2  erefs: 0.17977+309 0.17977+309
L=1  Nkbl=2  erefs: 0.17977+309 0.17977+309
L=2  Nkbl=1  erefs: 0.17977+309
===============================================================================
</basis_specs>

<pseudopotential_header>
 V  pw nrl pcec
 ONCVPSP-3.2018-03-09Hamann's oncvpsp                        
 3s 2.00  r= 1.31/3p 6.00  r= 1.31/3d 3.00  r= 1.67/                    3s:3p:3d:4s:
</pseudopotential_header>
</preamble>
V                             # Symbol
V                             # Label
   23                         # Atomic number
     13.0000000000                             # Valence charge
     50.9420000000        # Mass 
     221.604537424        # Self energy 
   2   7                      # Lmax for basis, no. of nl orbitals 
   2   6                      # Lmax for projectors, no. of nl KB projectors
# PAOs:__________________________
  0  3  1  0  2.000000   #orbital l, n, z, is_polarized, population
 500    0.5700018217523453E-02     2.844309090544203     # npts, delta, cutoff
     0.000000000000000         1.140120043035098    
    0.5700018217523453E-02     1.140196984020619    
    0.1140003643504691E-01     1.140501633189153    
    0.1710005465257036E-01     1.141009079507104    
    0.2280007287009381E-01     1.141718815688446    
    0.2850009108761726E-01     1.142630145175797    
    0.3420010930514072E-01     1.143742175557029    
    0.3990012752266417E-01     1.145053818355739    
    0.4560014574018762E-01     1.146563789777399    
    0.5130016395771107E-01     1.148270611808605    
    0.5700018217523452E-01     1.150172613548286    
    0.6270020039275798E-01     1.152267932737173    
    0.6840021861028144E-01     1.154554517473606    
    0.7410023682780488E-01     1.157030128110375    
    0.7980025504532834E-01     1.159692339329506    
    0.8550027326285178E-01     1.162538542392835    
    0.9120029148037524E-01     1.165565947566413    
    0.9690030969789870E-01     1.168771586716868    
    0.1026003279154221         1.172152316077837    
    0.1083003461329456         1.175704819184436    
    0.1140003643504690         1.179425609973648    
    0.1197003825679925         1.183311036048378    
    0.1254004007855160         1.187357282102715    
    0.1311004190030394         1.191560373505875    
    0.1368004372205629         1.195916180042053    
    0.1425004554380863         1.200420419803293    
    0.1482004736556098         1.205068663232293    
    0.1539004918731332         1.209856337311893    
    0.1596005100906567         1.214778729897811    
    0.1653005283081801         1.219830994191010    
    0.1710005465257036         1.225008153345889    
    0.1767005647432270         1.230305105210324    
    0.1824005829607505         1.235716627193358    
    0.1881006011782739         1.241237381256190    
    0.1938006193957974         1.246861919021899    
    0.1995006376133208         1.252584686999150    
    0.2052006558308443         1.258400031914938    
    0.2109006740483677         1.264302206151251    
    0.2166006922658912         1.270285373280320    
    0.2223007104834147         1.276343613692963    
    0.2280007287009381         1.282470930314322    
    0.2337007469184616         1.288661254401144    
    0.2394007651359850         1.294908451414540    
    0.2451007833535085         1.301206326962035    
    0.2508008015710319         1.307548632802498    
    0.2565008197885554         1.313929072907455    
    0.2622008380060788         1.320341309572058    
    0.2679008562236023         1.326778969568905    
    0.2736008744411257         1.333235650337721    
    0.2793008926586492         1.339704926203825    
    0.2850009108761726         1.346180354618147    
    0.2907009290936961         1.352655482411501    
    0.2964009473112195         1.359123852055679    
    0.3021009655287430         1.365579007923877    
    0.3078009837462665         1.372014502542869    
    0.3135010019637899         1.378423902829331    
    0.3192010201813134         1.384800796302586    
    0.3249010383988368         1.391138797266118    
    0.3306010566163602         1.397431552950077    
    0.3363010748338837         1.403672749607084    
    0.3420010930514071         1.409856118553592    
    0.3477011112689306         1.415975442149120    
    0.3534011294864541         1.422024559705710    
    0.3591011477039775         1.427997373319999    
    0.3648011659215010         1.433887853620414    
    0.3705011841390244         1.439690045422026    
    0.3762012023565479         1.445398073281772    
    0.3819012205740713         1.451006146946807    
    0.3876012387915948         1.456508566688950    
    0.3933012570091182         1.461899728518295    
    0.3990012752266417         1.467174129269242    
    0.4047012934441651         1.472326371552395    
    0.4104013116616886         1.477351168565969    
    0.4161013298792121         1.482243348760546    
    0.4218013480967355         1.486997860351274    
    0.4275013663142589         1.491609775671829    
    0.4332013845317824         1.496074295364729    
    0.4389014027493058         1.500386752402826    
    0.4446014209668293         1.504542615937142    
    0.4503014391843528         1.508537494966421    
    0.4560014574018762         1.512367141824182    
    0.4617014756193997         1.516027455479258    
    0.4674014938369231         1.519514484646217    
    0.4731015120544466         1.522824430702337    
    0.4788015302719700         1.525953650408181    
    0.4845015484894934         1.528898658429135    
    0.4902015667070169         1.531656129655646    
    0.4959015849245404         1.534222901320236    
    0.5016016031420638         1.536595974909746    
    0.5073016213595873         1.538772517871617    
    0.5130016395771108         1.540749865113349    
    0.5187016577946342         1.542525520294727    
    0.5244016760121576         1.544097156912669    
    0.5301016942296811         1.545462619179003    
    0.5358017124472045         1.546619922691758    
    0.5415017306647280         1.547567254901020    
    0.5472017488822515         1.548302975370624    
    0.5529017670997749         1.548825615837447    
    0.5586017853172983         1.549133880070283    
    0.5643018035348218         1.549226643530725    
    0.5700018217523453         1.549102952838717    
    0.5757018399698687         1.548762025045838    
    0.5814018581873922         1.548203246719622    
    0.5871018764049156         1.547426172842579    
    0.5928018946224390         1.546430525529832    
    0.5985019128399626         1.545216192569559    
    0.6042019310574860         1.543783225790734    
    0.6099019492750094         1.542131839262884    
    0.6156019674925329         1.540262407332774    
    0.6213019857100563         1.538175462503282    
    0.6270020039275798         1.535871693159755    
    0.6327020221451033         1.533351941149515    
    0.6384020403626267         1.530617199220207    
    0.6441020585801501         1.527668608322935    
    0.6498020767976737         1.524507454786252    
    0.6555020950151971         1.521135167367171    
    0.6612021132327205         1.517553314185524    
    0.6669021314502439         1.513763599548042    
    0.6726021496677674         1.509767860668630    
    0.6783021678852909         1.505568064291400    
    0.6840021861028143         1.501166303222990    
    0.6897022043203378         1.496564792780803    
    0.6954022225378612         1.491765867163782    
    0.7011022407553846         1.486771975752316    
    0.7068022589729082         1.481585679343872    
    0.7125022771904316         1.476209646330911    
    0.7182022954079550         1.470646648827574    
    0.7239023136254785         1.464899558752264    
    0.7296023318430019         1.458971344055091    
    0.7353023500605254         1.452865064205229    
    0.7410023682780489         1.446583866633977    
    0.7467023864955723         1.440130982617082    
    0.7524024047130957         1.433509723190450    
    0.7581024229306192         1.426723475093052    
    0.7638024411481427         1.419775696707136    
    0.7695024593656661         1.412669914001184    
    0.7752024775831896         1.405409716480906    
    0.7809024958007130         1.397998753153369    
    0.7866025140182364         1.390440728509181    
    0.7923025322357600         1.382739398527459    
    0.7980025504532834         1.374898566708115    
    0.8037025686708068         1.366922080135790    
    0.8094025868883302         1.358813825579550    
    0.8151026051058538         1.350577725632283    
    0.8208026233233772         1.342217734893490    
    0.8265026415409006         1.333737836198957    
    0.8322026597584241         1.325142036900615    
    0.8379026779759475         1.316434365199634    
    0.8436026961934709         1.307618866535623    
    0.8493027144109945         1.298699600034575    
    0.8550027326285179         1.289680635018017    
    0.8607027508460413         1.280566047575573    
    0.8664027690635648         1.271359917202995    
    0.8721027872810883         1.262066323507498    
    0.8778028054986117         1.252689342982026    
    0.8835028237161352         1.243233045849937    
    0.8892028419336586         1.233701492981359    
    0.8949028601511820         1.224098732882323    
    0.9006028783687056         1.214428798757617    
    0.9063028965862290         1.204695705648124    
    0.9120029148037524         1.194903447643257    
    0.9177029330212759         1.185055995168977    
    0.9234029512387993         1.175157292351706    
    0.9291029694563228         1.165211254458356    
    0.9348029876738463         1.155221765412545    
    0.9405030058913697         1.145192675386951    
    0.9462030241088931         1.135127798471691    
    0.9519030423264165         1.125030910418466    
    0.9576030605439401         1.114905746460153    
    0.9633030787614635         1.104755999205425    
    0.9690030969789869         1.094585316607945    
    0.9747031151965104         1.084397300009553    
    0.9804031334140338         1.074195502256880    
    0.9861031516315573         1.063983425890709    
    0.9918031698490808         1.053764521407412    
    0.9975031880666042         1.043542185591732    
     1.003203206284128         1.033319759920148    
     1.008903224501651         1.023100529034065    
     1.014603242719175         1.012887719282030    
     1.020303260936698         1.002684497330168    
     1.026003279154222        0.9924939688400700    
     1.031703297371745        0.9823191772132902    
     1.037403315589268        0.9721631024016945    
     1.043103333806792        0.9620286597828638    
     1.048803352024315        0.9519186990997811    
     1.054503370241839        0.9418360034640569    
     1.060203388459362        0.9317832884219629    
     1.065903406676886        0.9217632010825574    
     1.071603424894409        0.9117783193072296    
     1.077303443111933        0.9018311509599954    
     1.083003461329456        0.8919241332179152    
     1.088703479546979        0.8820596319410330    
     1.094403497764503        0.8722399411012595    
     1.100103515982026        0.8624672822696442    
     1.105803534199550        0.8527438041615215    
     1.111503552417073        0.8430715822390292    
     1.117203570634597        0.8334526183705362    
     1.122903588852120        0.8238888405465061    
     1.128603607069644        0.8143821026514074    
     1.134303625287167        0.8049341842912154    
     1.140003643504691        0.7955467906761443    
     1.145703661722214        0.7862215525582106    
     1.151403679939737        0.7769600262232678    
     1.157103698157261        0.7677636935371351    
     1.162803716374784        0.7586339620454773    
     1.168503734592308        0.7495721651270569    
     1.174203752809831        0.7405795622000036    
     1.179903771027355        0.7316573389807456    
     1.185603789244878        0.7228066077951931    
     1.191303807462402        0.7140284079418050    
     1.197003825679925        0.7053237061061179    
     1.202703843897448        0.6966933968263053    
     1.208403862114972        0.6881383030093134    
     1.214103880332495        0.6796591764970864    
     1.219803898550019        0.6712566986823719    
     1.225503916767542        0.6629314811735461    
     1.231203934985066        0.6546840665078922    
     1.236903953202589        0.6465149289126920    
     1.242603971420113        0.6384244751134599    
     1.248303989637636        0.6304130451886395    
     1.254004007855160        0.6224809134699647    
     1.259704026072683        0.6146282894877085    
     1.265404044290207        0.6068553189599655    
     1.271104062507730        0.5991620848202205    
     1.276804080725253        0.5915486081604977    
     1.282504098942777        0.5840148494844534    
     1.288204117160300        0.5765607103204485    
     1.293904135377824        0.5691860348360009    
     1.299604153595347        0.5618906093227884    
     1.305304171812871        0.5546741617632855    
     1.311004190030394        0.5475363639124978    
     1.316704208247917        0.5404768385962647    
     1.322404226465441        0.5334951687127503    
     1.328104244682965        0.5265909071039452    
     1.333804262900488        0.5197635863489593    
     1.339504281118011        0.5130127272966254    
     1.345204299335535        0.5063378425205367    
     1.350904317553058        0.4997384355400744    
     1.356604335770582        0.4932139989570573    
     1.362304353988105        0.4867640147788682    
     1.368004372205629        0.4803879550539377    
     1.373704390423152        0.4740852833108179    
     1.379404408640676        0.4678554556698712    
     1.385104426858199        0.4616979209930083    
     1.390804445075722        0.4556121214267845    
     1.396504463293246        0.4495974929358258    
     1.402204481510769        0.4436534658136033    
     1.407904499728293        0.4377794651720026    
     1.413604517945816        0.4319749114115967    
     1.419304536163340        0.4262392206732236    
     1.425004554380863        0.4205718052715323    
     1.430704572598387        0.4149720741110772    
     1.436404590815910        0.4094394330855761    
     1.442104609033434        0.4039732854608675    
     1.447804627250957        0.3985730322421662    
     1.453504645468480        0.3932380725260972    
     1.459204663686004        0.3879678038380787    
     1.464904681903527        0.3827616224555190    
     1.470604700121051        0.3776189237173340    
     1.476304718338574        0.3725391023202407    
     1.482004736556098        0.3675215526023028    
     1.487704754773621        0.3625656688141476    
     1.493404772991145        0.3576708453782912    
     1.499104791208668        0.3528364771369971    
     1.504804809426191        0.3480619595890403    
     1.510504827643715        0.3433466891157959    
     1.516204845861238        0.3386900631970029    
     1.521904864078762        0.3340914806165786    
     1.527604882296285        0.3295503416588338    
     1.533304900513809        0.3250660482954184    
     1.539004918731332        0.3206380043633466    
     1.544704936948856        0.3162656157343922    
     1.550404955166379        0.3119482904761882    
     1.556104973383903        0.3076854390053125    
     1.561804991601426        0.3034764742326476    
     1.567505009818950        0.2993208117013045    
     1.573205028036473        0.2952178697173681    
     1.578905046253996        0.2911670694737265    
     1.584605064471520        0.2871678351672442    
     1.590305082689043        0.2832195941095156    
     1.596005100906567        0.2793217768314284    
     1.601705119124090        0.2754738171817868    
     1.607405137341614        0.2716751524201850    
     1.613105155559137        0.2679252233043663    
     1.618805173776660        0.2642234741722686    
     1.624505191994184        0.2605693530189462    
     1.630205210211708        0.2569623115685698    
     1.635905228429231        0.2534018053416892    
     1.641605246646754        0.2498872937179376    
     1.647305264864278        0.2464182399943419    
     1.653005283081801        0.2429941114394270    
     1.658705301299325        0.2396143793432557    
     1.664405319516848        0.2362785190635753    
     1.670105337734372        0.2329860100682126    
     1.675805355951895        0.2297363359738720    
     1.681505374169419        0.2265289845814659    
     1.687205392386942        0.2233634479081312    
     1.692905410604465        0.2202392222160523    
     1.698605428821989        0.2171558080382143    
     1.704305447039512        0.2141127102012162    
     1.710005465257036        0.2111094378452623    
     1.715705483474559        0.2081455044414518    
     1.721405501692083        0.2052204278064680    
     1.727105519909606        0.2023337301147778    
     1.732805538127130        0.1994849379084452    
     1.738505556344653        0.1966735821046598    
     1.744205574562177        0.1938991980010757    
     1.749905592779700        0.1911613252790518    
     1.755605610997223        0.1884595080048883    
     1.761305629214747        0.1857932946291401    
     1.767005647432270        0.1831622379840974    
     1.772705665649794        0.1805658952795103    
     1.778405683867317        0.1780038280966303    
     1.784105702084841        0.1754756023806581    
     1.789805720302364        0.1729807884316557    
     1.795505738519888        0.1705189608940005    
     1.801205756737411        0.1680896987444510    
     1.806905774954934        0.1656925852788773    
     1.812605793172458        0.1633272080977362    
     1.818305811389981        0.1609931590903385    
     1.824005829607505        0.1586900344179721    
     1.829705847825028        0.1564174344959388    
     1.835405866042552        0.1541749639745533    
     1.841105884260075        0.1519622317191634    
     1.846805902477599        0.1497788507892390    
     1.852505920695122        0.1476244384165779    
     1.858205938912646        0.1454986159826757    
     1.863905957130169        0.1434010089953076    
     1.869605975347693        0.1413312470643615    
     1.875305993565216        0.1392889638769690    
     1.881006011782739        0.1372737971719684    
     1.886706030000263        0.1352853887137468    
     1.892406048217786        0.1333233842654927    
     1.898106066435310        0.1313874335618966    
     1.903806084652833        0.1294771902813361    
     1.909506102870357        0.1275923120175768    
     1.915206121087880        0.1257324602510251    
     1.920906139305403        0.1238973003195553    
     1.926606157522927        0.1220865013889531    
     1.932306175740450        0.1202997364229939    
     1.938006193957974        0.1185366821531881    
     1.943706212175497        0.1167970190482194    
     1.949406230393021        0.1150804312831013    
     1.955106248610544        0.1133866067080763    
     1.960806266828068        0.1117152368172833    
     1.966506285045591        0.1100660167172096    
     1.972206303263115        0.1084386450949586    
     1.977906321480638        0.1068328241863477    
     1.983606339698162        0.1052482597438586    
     1.989306357915685        0.1036846610044527    
     1.995006376133208        0.1021417406572799    
     2.000706394350732        0.1006192148112973    
     2.006406412568255        0.9911680296281114E-01
     2.012106430785779        0.9763422796295949E-01
     2.017806449003302        0.9617121598514790E-01
     2.023506467220826        0.9472749649245717E-01
     2.029206485438349        0.9330280220503594E-01
     2.034906503655872        0.9189686906749255E-01
     2.040606521873396        0.9050943621630121E-01
     2.046306540090920        0.8914024594722851E-01
     2.052006558308443        0.8778904368279955E-01
     2.057706576525967        0.8645557793981290E-01
     2.063406594743490        0.8513960029690981E-01
     2.069106612961013        0.8384086536221717E-01
     2.074806631178537        0.8255913074106942E-01
     2.080506649396060        0.8129415700381619E-01
     2.086206667613584        0.8004570765373024E-01
     2.091906685831107        0.7881354909502204E-01
     2.097606704048630        0.7759745060096727E-01
     2.103306722266154        0.7639718428215710E-01
     2.109006740483677        0.7521252505488053E-01
     2.114706758701201        0.7404325060963980E-01
     2.120406776918724        0.7288914137981191E-01
     2.126106795136248        0.7174998051045962E-01
     2.131806813353771        0.7062555382729685E-01
     2.137506831571295        0.6951564980581668E-01
     2.143206849788818        0.6842005954058619E-01
     2.148906868006342        0.6733857671471195E-01
     2.154606886223865        0.6627099756948282E-01
     2.160306904441389        0.6521712087419385E-01
     2.166006922658912        0.6417674789615467E-01
     2.171706940876435        0.6314968237088676E-01
     2.177406959093959        0.6213573047251505E-01
     2.183106977311482        0.6113470078435322E-01
     2.188806995529006        0.6014640426969097E-01
     2.194507013746529        0.5917065424278127E-01
     2.200207031964053        0.5820726634003385E-01
     2.205907050181576        0.5725605849141676E-01
     2.211607068399100        0.5631685089206652E-01
     2.217307086616623        0.5538946597411096E-01
     2.223007104834147        0.5447372837870750E-01
     2.228707123051670        0.5356946492829426E-01
     2.234407141269193        0.5267650459906102E-01
     2.240107159486717        0.5179467849363928E-01
     2.245807177704240        0.5092381981400933E-01
     2.251507195921764        0.5006376383463280E-01
     2.257207214139287        0.4921434787580438E-01
     2.262907232356811        0.4837541127722775E-01
     2.268607250574334        0.4754679537181531E-01
     2.274307268791858        0.4672834345971162E-01
     2.280007287009381        0.4591990078254285E-01
     2.285707305226905        0.4512131449788963E-01
     2.291407323444428        0.4433243365398673E-01
     2.297107341661952        0.4355310916464723E-01
     2.302807359879475        0.4278319378441218E-01
     2.308507378096998        0.4202254208392515E-01
     2.314207396314522        0.4127101042553371E-01
     2.319907414532045        0.4052845693911213E-01
     2.325607432749569        0.3979474149811144E-01
     2.331307450967092        0.3906972569583285E-01
     2.337007469184615        0.3835327282192211E-01
     2.342707487402139        0.3764524783908939E-01
     2.348407505619662        0.3694551736004921E-01
     2.354107523837186        0.3625394962468213E-01
     2.359807542054710        0.3557041447741633E-01
     2.365507560272233        0.3489478334482841E-01
     2.371207578489756        0.3422692921346286E-01
     2.376907596707280        0.3356672660786808E-01
     2.382607614924803        0.3291405156884882E-01
     2.388307633142327        0.3226878163193433E-01
     2.394007651359850        0.3163079580605811E-01
     2.399707669577373        0.3099997455245239E-01
     2.405407687794897        0.3037619976375223E-01
     2.411107706012420        0.2975935474331015E-01
     2.416807724229944        0.2914932418471862E-01
     2.422507742447467        0.2854599415153917E-01
     2.428207760664991        0.2794925205723849E-01
     2.433907778882514        0.2735898664532609E-01
     2.439607797100038        0.2677508796969617E-01
     2.445307815317561        0.2619744737517004E-01
     2.451007833535085        0.2562595747823655E-01
     2.456707851752608        0.2506051214799132E-01
     2.462407869970132        0.2450100648727124E-01
     2.468107888187655        0.2394733681398336E-01
     2.473807906405178        0.2339940064262571E-01
     2.479507924622702        0.2285709666600020E-01
     2.485207942840225        0.2232032473711258E-01
     2.490907961057749        0.2178898585126146E-01
     2.496607979275272        0.2126298212831178E-01
     2.502307997492796        0.2074221679515198E-01
     2.508008015710319        0.2022659416833296E-01
     2.513708033927843        0.1971601963688719E-01
     2.519408052145366        0.1921039964532643E-01
     2.525108070362890        0.1870964167681434E-01
     2.530808088580413        0.1821365423651484E-01
     2.536508106797936        0.1772234683511273E-01
     2.542208125015460        0.1723562997250414E-01
     2.547908143232983        0.1675341512165717E-01
     2.553608161450507        0.1627561471263747E-01
     2.559308179668030        0.1580214211680133E-01
     2.565008197885554        0.1533291163114902E-01
     2.570708216103077        0.1486783846284102E-01
     2.576408234320601        0.1440683871393643E-01
     2.582108252538124        0.1394982937833114E-01
     2.587808270755648        0.1349672864231930E-01
     2.593508288973171        0.1304745818208789E-01
     2.599208307190695        0.1260195034407454E-01
     2.604908325408218        0.1216016055839065E-01
     2.610608343625741        0.1172208157708992E-01
     2.616308361843265        0.1128775540380469E-01
     2.622008380060788        0.1085728050558747E-01
     2.627708398278312        0.1043081386575274E-01
     2.633408416495835        0.1000856864256548E-01
     2.639108434713358        0.9590808647009499E-02
     2.644808452930882        0.9177840842771595E-02
     2.650508471148405        0.8770006861700649E-02
     2.656208489365929        0.8367674270793050E-02
     2.661908507583453        0.7971228092894989E-02
     2.667608525800976        0.7581062896668036E-02
     2.673308544018499        0.7197575633336215E-02
     2.679008562236023        0.6821159301070938E-02
     2.684708580453546        0.6452197453267263E-02
     2.690408598671070        0.6091059525841856E-02
     2.696108616888593        0.5738096934124839E-02
     2.701808635106116        0.5393639876640449E-02
     2.707508653323640        0.5057994777281716E-02
     2.713208671541163        0.4731442296360110E-02
     2.718908689758687        0.4414235842897738E-02
     2.724608707976210        0.4106600524027416E-02
     2.730308726193734        0.3808732471625473E-02
     2.736008744411257        0.3520798490704515E-02
     2.741708762628781        0.3242935978229600E-02
     2.747408780846304        0.2975253064541549E-02
     2.753108799063828        0.2717828932161428E-02
     2.758808817281351        0.2470714268024582E-02
     2.764508835498875        0.2233931804600282E-02
     2.770208853716398        0.2007476902018739E-02
     2.775908871933921        0.1791318115748330E-02
     2.781608890151445        0.1585397679881327E-02
     2.787308908368968        0.1389631809740763E-02
     2.793008926586492        0.1203910679726565E-02
     2.798708944804015        0.1028097843496336E-02
     2.804408963021539        0.8620286911686612E-03
     2.810108981239062        0.7055071825349921E-03
     2.815808999456586        0.5582992993605565E-03
     2.821509017674109        0.4201196762462033E-03
     2.827209035891633        0.2906021345352781E-03
     2.832909054109156        0.1692245609239708E-03
     2.838609072326679        0.5504447336944151E-04
     2.844309090544203         0.000000000000000    
  0  4  1  0  2.000000   #orbital l, n, z, is_polarized, population
 500    0.1559100992613649E-01     7.779913953142107     # npts, delta, cutoff
     0.000000000000000        0.4530848713250851    
    0.1559100992613649E-01    0.4532895675689099    
    0.3118201985227297E-01    0.4539305068642594    