<preamble>

<basis_specs>
===============================================================================
W                    Z=  74    Mass=  183.84        Charge= 0.17977+309
Lmxo=2 Lmxkb= 3    BasisType=split      Semic=T
L=0  Nsemic=1  Cnfigmx=6
          i=1  nzeta=1  polorb=0  (5s)  (semicore shell)
            splnorm:   0.15000    
               vcte:    40.000    
               rinn:    2.6065    
               qcoe:    0.0000    
               qyuk:    0.0000    
               qwid:   0.10000E-01
                rcs:    2.8962    
            lambdas:    1.0000    
          i=2  nzeta=2  polorb=0  (6s)  (to be polarized non-perturbatively)
            splnorm:   0.15000    
               vcte:    40.000    
               rinn:    6.3538    
               qcoe:    0.0000    
               qyuk:    0.0000    
               qwid:   0.10000E-01
                rcs:    7.0527      5.0726    
            lambdas:    1.0000      1.0000    
L=1  Nsemic=1  Cnfigmx=6
          i=1  nzeta=1  polorb=0  (5p)  (semicore shell)
            splnorm:   0.15000    
               vcte:    40.000    
               rinn:    3.1099    
               qcoe:    0.0000    
               qyuk:    0.0000    
               qwid:   0.10000E-01
                rcs:    3.4554    
            lambdas:    1.0000    
          i=2  nzeta=1  polorb=0  (6p)  (non-perturbative polarization shell)
            splnorm:   0.15000    
               vcte:    40.000    
               rinn:    6.3538    
               qcoe:    0.0000    
               qyuk:    0.0000    
               qwid:   0.10000E-01
                rcs:    7.0527    
            lambdas:    1.0000    
L=2  Nsemic=0  Cnfigmx=5
          i=1  nzeta=2  polorb=0  (5d)
            splnorm:   0.15000    
               vcte:    40.000    
               rinn:    5.4620    
               qcoe:    0.0000    
               qyuk:    0.0000    
               qwid:   0.10000E-01
                rcs:    6.0689      4.0648    
            lambdas:    1.0000      1.0000    
-------------------------------------------------------------------------------
L=0  Nkbl=2  erefs: 0.17977+309 0.17977+309
L=1  Nkbl=2  erefs: 0.17977+309 0.17977+309
L=2  Nkbl=1  erefs: 0.17977+309
L=3  Nkbl=1  erefs: 0.17977+309
===============================================================================
</basis_specs>

<pseudopotential_header>
 W  pw nrl pcec
 ONCVPSP-3.2018-03-09Hamann's oncvpsp                        
 5s 2.00  r= 1.61/5p 6.00  r= 1.61/5d 4.00  r= 1.61/5f 0.00  r= 2.02/   5s:5p:5d:6s:
</pseudopotential_header>
</preamble>
W                             # Symbol
W                             # Label
   74                         # Atomic number
     14.0000000000                             # Valence charge
     183.840000000        # Mass 
     277.482032598        # Self energy 
   2   7                      # Lmax for basis, no. of nl orbitals 
   3   8                      # Lmax for projectors, no. of nl KB projectors
# PAOs:__________________________
  0  5  1  0  2.000000   #orbital l, n, z, is_polarized, population
 500    0.5803911501332526E-02     2.896151839164931     # npts, delta, cutoff
     0.000000000000000        0.8039150524312163    
    0.5803911501332526E-02    0.8039766238671974    
    0.1160782300266505E-01    0.8042174217566900    
    0.1741173450399758E-01    0.8046185914727828    
    0.2321564600533010E-01    0.8051798525981568    
    0.2901955750666263E-01    0.8059008224958523    
    0.3482346900799516E-01    0.8067810111727085    
    0.4062738050932768E-01    0.8078198208316461    
    0.4643129201066021E-01    0.8090165460723679    
    0.5223520351199273E-01    0.8103703742913975    
    0.5803911501332526E-01    0.8118803861914495    
    0.6384302651465779E-01    0.8135455563754196    
    0.6964693801599031E-01    0.8153647540165575    
    0.7545084951732284E-01    0.8173367436013874    
    0.8125476101865536E-01    0.8194601857436685    
    0.8705867251998789E-01    0.8217336380684235    
    0.9286258402132042E-01    0.8241555561652938    
    0.9866649552265294E-01    0.8267242946106099    
    0.1044704070239855        0.8294381080576098    
    0.1102743185253180        0.8322951523942218    
    0.1160782300266505        0.8352934859678216    
    0.1218821415279830        0.8384310708763514    
    0.1276860530293156        0.8417057743251294    
    0.1334899645306481        0.8451153700486799    
    0.1392938760319806        0.8486575397968408    
    0.1450977875333131        0.8523298748843698    
    0.1509016990346457        0.8561298778032557    
    0.1567056105359782        0.8600549638968448    
    0.1625095220373107        0.8641024630949061    
    0.1683134335386433        0.8682696217086563    
    0.1741173450399758        0.8725536042847662    
    0.1799212565413083        0.8769514955172814    
    0.1857251680426408        0.8814603022163743    
    0.1915290795439734        0.8860769553327673    
    0.1973329910453059        0.8907983120366356    
    0.2031369025466384        0.8956211578497423    
    0.2089408140479709        0.9005422088294934    
    0.2147447255493035        0.9055581138035736    
    0.2205486370506360        0.9106654566537465    
    0.2263525485519685        0.9158607586473609    
    0.2321564600533010        0.9211404808150656    
    0.2379603715546336        0.9265010263731487    
    0.2437642830559661        0.9319387431888985    
    0.2495681945572986        0.9374499262873174    
    0.2553721060586311        0.9430308203974601    
    0.2611760175599637        0.9486776225366214    
    0.2669799290612962        0.9543864846305689    
    0.2727838405626287        0.9601535161679121    
    0.2785877520639612        0.9659747868867191    
    0.2843916635652938        0.9718463294913782    
    0.2901955750666263        0.9777641423977023    
    0.2959994865679588        0.9837241925041973    
    0.3018033980692914        0.9897224179873821    
    0.3076073095706239        0.9957547311190108    
    0.3134112210719564         1.001817021102985    
    0.3192151325732889         1.007905156929726    
    0.3250190440746215         1.014014990245726    
    0.3308229555759540         1.020142358235959    
    0.3366268670772865         1.026283086516798    
    0.3424307785786190         1.032432992037075    
    0.3482346900799516         1.038587885984845    
    0.3540386015812841         1.044743576697435    
    0.3598425130826166         1.050895872572301    
    0.3656464245839491         1.057040584976212    
    0.3714503360852817         1.063173531150262    
    0.3772542475866142         1.069290537108164    
    0.3830581590879467         1.075387440525326    
    0.3888620705892792         1.081460093616135    
    0.3946659820906118         1.087504365996901    
    0.4004698935919443         1.093516147531930    
    0.4062738050932768         1.099491351160138    
    0.4120777165946093         1.105425915699677    
    0.4178816280959419         1.111315808628012    
    0.4236855395972744         1.117157028834936    
    0.4294894510986069         1.122945609345977    
    0.4352933625999394         1.128677620013719    
    0.4410972741012720         1.134349170174539    
    0.4469011856026045         1.139956411268311    
    0.4527050971039370         1.145495539418659    
    0.4585090086052696         1.150962797971350    
    0.4643129201066021         1.156354479988485    
    0.4701168316079346         1.161666930696157    
    0.4759207431092671         1.166896549883321    
    0.4817246546105997         1.172039794249631    
    0.4875285661119322         1.177093179700087    
    0.4933324776132647         1.182053283584356    
    0.4991363891145972         1.186916746878727    
    0.5049403006159298         1.191680276308680    
    0.5107442121172623         1.196340646410143    
    0.5165481236185948         1.200894701527564    
    0.5223520351199273         1.205339357747020    
    0.5281559466212599         1.209671604762620    
    0.5339598581225924         1.213888507674565    
    0.5397637696239249         1.217987208717311    
    0.5455676811252574         1.221964928916331    
    0.5513715926265900         1.225818969672115    
    0.5571755041279225         1.229546714270053    
    0.5629794156292550         1.233145629315026    
    0.5687833271305875         1.236613266089540    
    0.5745872386319201         1.239947261834401    
    0.5803911501332526         1.243145340950975    
    0.5861950616345851         1.246205316124182    
    0.5919989731359176         1.249125089365517    
    0.5978028846372502         1.251902652975401    
    0.6036067961385827         1.254536090424382    
    0.6094107076399152         1.257023577152678    
    0.6152146191412478         1.259363381287777    
    0.6210185306425803         1.261553864279824    
    0.6268224421439128         1.263593481454675    
    0.6326263536452453         1.265480782484572    
    0.6384302651465779         1.267214411776530    
    0.6442341766479104         1.268793108778582    
    0.6500380881492429         1.270215708204184    
    0.6558419996505754         1.271481140175118    
    0.6616459111519080         1.272588430283414    
    0.6674498226532405         1.273536699572809    
    0.6732537341545730         1.274325164440474    
    0.6790576456559055         1.274953136459711    
    0.6848615571572381         1.275420022124533    
    0.6906654686585706         1.275725322517043    
    0.6964693801599031         1.275868632898679    
    0.7022732916612356         1.275849642226433    
    0.7080772031625682         1.275668132595277    
    0.7138811146639007         1.275323978608082    
    0.7196850261652332         1.274817146674411    
    0.7254889376665657         1.274147694239654    
    0.7312928491678983         1.273315768946012    
    0.7370967606692308         1.272321607726954    
    0.7429006721705633         1.271165535836795    
    0.7487045836718959         1.269847965817156    
    0.7545084951732284         1.268369396402064    
    0.7603124066745609         1.266730411363594    
    0.7661163181758934         1.264931678299900    
    0.7719202296772260         1.262973947367656    
    0.7777241411785585         1.260858049960854    
    0.7835280526798910         1.258584897338046    
    0.7893319641812235         1.256155479200093    
    0.7951358756825561         1.253570862220559    
    0.8009397871838886         1.250832188530873    
    0.8067436986852211         1.247940674162472    
    0.8125476101865536         1.244897607448103    
    0.8183515216878862         1.241704347384507    
    0.8241554331892187         1.238362321958730    
    0.8299593446905512         1.234873026440300    
    0.8357632561918837         1.231238021641520    
    0.8415671676932163         1.227458932148145    
    0.8473710791945488         1.223537444522687    
    0.8531749906958813         1.219475305482607    
    0.8589789021972138         1.215274320169878    
    0.8647828136985464         1.210936350031281    
    0.8705867251998789         1.206463311009643    
    0.8763906367012114         1.201857171800141    
    0.8821945482025439         1.197119951845184    
    0.8879984597038765         1.192253719408497    
    0.8938023712052090         1.187260589639431    
    0.8996062827065415         1.182142722629578    
    0.9054101942078741         1.176902321463757    
    0.9112141057092066         1.171541630267381    
    0.9170180172105391         1.166062932252185    
    0.9228219287118716         1.160468547762251    
    0.9286258402132042         1.154760832322214    
    0.9344297517145367         1.148942174689505    
    0.9402336632158692         1.143014994912402    
    0.9460375747172017         1.136981742395653    
    0.9518414862185343         1.130844893975346    
    0.9576453977198668         1.124606952004668    
    0.9634493092211993         1.118270442452116    
    0.9692532207225318         1.111837913013703    
    0.9750571322238644         1.105311931240604    
    0.9808610437251969         1.098695082683647    
    0.9866649552265294         1.091989969055996    
    0.9924688667278619         1.085199206415297    
    0.9982727782291945         1.078325423366526    
     1.004076689730527         1.071371259286667    
     1.009880601231860         1.064339362572340    
     1.015684512733192         1.057232388911407    
     1.021488424234525         1.050052999579517    
     1.027292335735857         1.042803859762508    
     1.033096247237190         1.035487636905520    
     1.038900158738522         1.028106999089590    
     1.044704070239855         1.020664613436473    
     1.050507981741187         1.013163144542353    
     1.056311893242520         1.005605252941044    
     1.062115804743852        0.9979935935972547    
     1.067919716245185        0.9903308144303898    
     1.073723627746517        0.9826195548693489    
     1.079527539247850        0.9748624444387016    
     1.085331450749182        0.9670621013765814    
     1.091135362250515        0.9592211312845804    
     1.096939273751847        0.9513421258098814    
     1.102743185253180        0.9434276613598281    
     1.108547096754513        0.9354802978490646    
     1.114351008255845        0.9275025774793541    
     1.120154919757177        0.9194970235521377    
     1.125958831258510        0.9114661393138518    
     1.131762742759843        0.9034124068339828    
     1.137566654261175        0.8953382859158171    
     1.143370565762508        0.8872462130397886    
     1.149174477263840        0.8791386003393105    
     1.154978388765173        0.8710178346089467    
     1.160782300266505        0.8628862763447399    
     1.166586211767838        0.8547462588165027    
     1.172390123269170        0.8466000871718431    
     1.178194034770503        0.8384500375716804    
     1.183997946271835        0.8302983563569838    
     1.189801857773168        0.8221472592464543    
     1.195605769274500        0.8139989305648466    
     1.201409680775833        0.8058555225016234    
     1.207213592277165        0.7977191543996118    
     1.213017503778498        0.7895919120733274    
     1.218821415279830        0.7814758471566370    
     1.224625326781163        0.7733729764793854    
     1.230429238282496        0.7652852814726480    
     1.236233149783828        0.7572147076022465    
     1.242037061285161        0.7491631638301598    
     1.247840972786493        0.7411325221034825    
     1.253644884287826        0.7331246168705462    
     1.259448795789158        0.7251412446238623    
     1.265252707290491        0.7171841634695201    
     1.271056618791823        0.7092550927226871    
     1.276860530293156        0.7013557125288548    
     1.282664441794488        0.6934876635104977    
     1.288468353295821        0.6856525464387996    
     1.294272264797153        0.6778519219301128    
     1.300076176298486        0.6700873101668307    
     1.305880087799818        0.6623601906423613    
     1.311683999301151        0.6546720019298840    
     1.317487910802484        0.6470241414745954    
     1.323291822303816        0.6394179654091616    
     1.329095733805148        0.6318547883920752    
     1.334899645306481        0.6243358834686682    
     1.340703556807814        0.6168624819545087    
     1.346507468309146        0.6094357733409151    
     1.352311379810478        0.6020569052223643    
     1.358115291311811        0.5947269832455457    
     1.363919202813144        0.5874470710798252    
     1.369723114314476        0.5802181904089252    
     1.375527025815809        0.5730413209435660    
     1.381330937317141        0.5659174004549172    
     1.387134848818474        0.5588473248286033    
     1.392938760319806        0.5518319481391167    
     1.398742671821139        0.5448720827444221    
     1.404546583322471        0.5379684994005752    
     1.410350494823804        0.5311219273961949    
     1.416154406325136        0.5243330547065753    
     1.421958317826469        0.5176025281673071    
     1.427762229327801        0.5109309536671969    
     1.433566140829134        0.5043188963603468    
     1.439370052330466        0.4977668808971983    
     1.445173963831799        0.4912753916743822    
     1.450977875333131        0.4848448731031946    
     1.456781786834464        0.4784757298965326    
     1.462585698335797        0.4721683273740929    
     1.468389609837129        0.4659229917856720    
     1.474193521338462        0.4597400106523580    
     1.479997432839794        0.4536196331254455    
     1.485801344341127        0.4475620703628425    
     1.491605255842459        0.4415674959227983    
     1.497409167343792        0.4356360461747019    
     1.503213078845124        0.4297678207267626    
     1.509016990346457        0.4239628828703039    
     1.514820901847789        0.4182212600404731    
     1.520624813349122        0.4125429442930632    
     1.526428724850454        0.4069278927972363    
     1.532232636351787        0.4013760283438403    
     1.538036547853119        0.3958872398695195    
     1.543840459354452        0.3904613826237127    
     1.549644370855785        0.3850982787218007    
     1.555448282357117        0.3797977184825695    
     1.561252193858449        0.3745594605654332    
     1.567056105359782        0.3693832325280739    
     1.572860016861115        0.3642687317115742    
     1.578663928362447        0.3592156260784858    
     1.584467839863779        0.3542235550772594    
     1.590271751365112        0.3492921290196666    
     1.596075662866445        0.3444209288725231    
     1.601879574367777        0.3396095066138346    
     1.607683485869110        0.3348573881826734    
     1.613487397370442        0.3301640778945085    
     1.619291308871775        0.3255290630978701    
     1.625095220373107        0.3209518191007560    
     1.630899131874440        0.3164318139148961    
     1.636703043375772        0.3119685124709410    
     1.642506954877105        0.3075613797904139    
     1.648310866378437        0.3032098810788320    
     1.654114777879770        0.2989134813002577    
     1.659918689381102        0.2946716440888281    
     1.665722600882435        0.2904838318773609    
     1.671526512383767        0.2863495064789331    
     1.677330423885100        0.2822681295345478    
     1.683134335386433        0.2782391629118873    
     1.688938246887765        0.2742620688131336    
     1.694742158389098        0.2703363099778223    
     1.700546069890430        0.2664613498883631    
     1.706349981391763        0.2626366529694010    
     1.712153892893095        0.2588616847782623    
     1.717957804394428        0.2551359121860755    
     1.723761715895760        0.2514588035504893    
     1.729565627397093        0.2478298288802771    
     1.735369538898425        0.2442484599920990    
     1.741173450399758        0.2407141706596880    
     1.746977361901090        0.2372264367557278    
     1.752781273402423        0.2337847363866663    
     1.758585184903755        0.2303885500207178    
     1.764389096405088        0.2270373606092744    
     1.770193007906420        0.2237306537019774    
     1.775996919407753        0.2204679175556549    
     1.781800830909086        0.2172486432373494    
     1.787604742410418        0.2140723247216440    
     1.793408653911750        0.2109384589824802    
     1.799212565413083        0.2078465460796812    
     1.805016476914416        0.2047960892403565    
     1.810820388415748        0.2017865949353761    
     1.816624299917081        0.1988175729510973    
     1.822428211418413        0.1958885364565084    
     1.828232122919746        0.1929990020659660    
     1.834036034421078        0.1901484898976851    
     1.839839945922411        0.1873365236281333    
     1.845643857423743        0.1845626305424928    
     1.851447768925076        0.1818263415813250    
     1.857251680426408        0.1791271913835907    
     1.863055591927741        0.1764647183261595    
     1.868859503429073        0.1738384645599410    
     1.874663414930406        0.1712479760427727    
     1.880467326431738        0.1686928025691806    
     1.886271237933071        0.1661724977971445    
     1.892075149434403        0.1636866192719780    
     1.897879060935736        0.1612347284474401    
     1.903682972437069        0.1588163907041866    
     1.909486883938401        0.1564311753656679    
     1.915290795439734        0.1540786557115806    
     1.921094706941066        0.1517584089889600    
     1.926898618442399        0.1494700164210275    
     1.932702529943731        0.1472130632138698    
     1.938506441445064        0.1449871385610494    
     1.944310352946396        0.1427918356462310    
     1.950114264447729        0.1406267516439051    
     1.955918175949061        0.1384914877182946    
     1.961722087450394        0.1363856490205210    
     1.967525998951726        0.1343088446841036    
     1.973329910453059        0.1322606878188702    
     1.979133821954391        0.1302407955033466    
     1.984937733455724        0.1282487887756932    
     1.990741644957057        0.1262842926232580    
     1.996545556458389        0.1243469359708067    
     2.002349467959721        0.1224363516674925    
     2.008153379461054        0.1205521764726269    
     2.013957290962387        0.1186940510403062    
     2.019761202463719        0.1168616199029524    
     2.025565113965051        0.1150545314538194    
     2.031369025466384        0.1132724379285169    
     2.037172936967717        0.1115149953856037    
     2.042976848469049        0.1097818636862968    
     2.048780759970382        0.1080727064733428    
     2.054584671471714        0.1063871911490972    
     2.060388582973047        0.1047249888528546    
     2.066192494474379        0.1030857744374716    
     2.071996405975712        0.1014692264453214    
     2.077800317477045        0.9987502708362057E-01
     2.083604228978377        0.9830286219916502E-01
     2.089408140479709        0.9675242125250956E-01
     2.095212051981042        0.9522339729162628E-01
     2.101015963482374        0.9371548692507757E-01
     2.106819874983707        0.9222839029473298E-01
     2.112623786485039        0.9076181104806010E-01
     2.118427697986372        0.8931545631002326E-01
     2.124231609487705        0.8788903665461517E-01
     2.130035520989037        0.8648226607604986E-01
     2.135839432490370        0.8509486195964386E-01
     2.141643343991702        0.8372654505241255E-01
     2.147447255493034        0.8237703943340066E-01
     2.153251166994367        0.8104607248377835E-01
     2.159055078495700        0.7973337485672033E-01
     2.164858989997032        0.7843868044708815E-01
     2.170662901498365        0.7716172636094341E-01
     2.176466812999697        0.7590225288490429E-01
     2.182270724501030        0.7466000345536906E-01
     2.188074636002362        0.7343472462762560E-01
     2.193878547503695        0.7222616604485946E-01
     2.199682459005027        0.7103408040708289E-01
     2.205486370506360        0.6985822344000069E-01
     2.211290282007692        0.6869835386382153E-01
     2.217094193509025        0.6755423336203925E-01
     2.222898105010358        0.6642562655019357E-01
     2.228702016511690        0.6531230094462025E-01
     2.234505928013022        0.6421402693121181E-01
     2.240309839514355        0.6313057773419586E-01
     2.246113751015688        0.6206172938494077E-01
     2.251917662517020        0.6100726069080848E-01
     2.257721574018352        0.5996695320405586E-01
     2.263525485519685        0.5894059119080063E-01
     2.269329397021018        0.5792796160005991E-01
     2.275133308522350        0.5692885403287102E-01
     2.280937220023683        0.5594306071150271E-01
     2.286741131525015        0.5497037644876603E-01
     2.292545043026348        0.5401059861743324E-01
     2.298348954527680        0.5306352711977094E-01
     2.304152866029013        0.5212896435719536E-01
     2.309956777530346        0.5120671520005759E-01
     2.315760689031678        0.5029658695756397E-01
     2.321564600533010        0.4939838934783741E-01
     2.327368512034343        0.4851193446812670E-01
     2.333172423535675        0.4763703676516982E-01
     2.338976335037008        0.4677351300571226E-01
     2.344780246538340        0.4592118224719085E-01
     2.350584158039673        0.4507986580858434E-01
     2.356388069541006        0.4424938724143329E-01
     2.362191981042338        0.4342957230103881E-01
     2.367995892543671        0.4262024891783754E-01
     2.373799804045003        0.4182124716896030E-01
     2.379603715546335        0.4103239924997699E-01
     2.385407627047668        0.4025353944682897E-01
     2.391211538549001        0.3948450410795359E-01
     2.397015450050333        0.3872513161660244E-01
     2.402819361551666        0.3797526236335465E-01
     2.408623273052998        0.3723473871883140E-01
     2.414427184554331        0.3650340500660610E-01
     2.420231096055663        0.3578110747632003E-01
     2.426035007556996        0.3506769427700011E-01
     2.431838919058328        0.3436301543057992E-01
     2.437642830559661        0.3366692280562905E-01
     2.443446742060993        0.3297927009128676E-01
     2.449250653562326        0.3229991277140484E-01
     2.455054565063659        0.3162870809889813E-01
     2.460858476564991        0.3096551507030437E-01
     2.466662388066323        0.3031019440055260E-01
     2.472466299567656        0.2966260849794162E-01
     2.478270211068989        0.2902262143932905E-01
     2.484074122570321        0.2839009894552827E-01
     2.489878034071654        0.2776490835691674E-01
     2.495681945572986        0.2714691860925298E-01
     2.501485857074319        0.2653600020970333E-01
     2.507289768575651        0.2593202521307679E-01
     2.513093680076984        0.2533486719826858E-01
     2.518897591578316        0.2474440124491248E-01
     2.524701503079649        0.2416050391023790E-01
     2.530505414580981        0.2358305320613560E-01
     2.536309326082314        0.2301192857642747E-01
     2.542113237583647        0.2244701087434111E-01
     2.547917149084979        0.2188818234018864E-01
     2.553721060586311        0.2133532657924620E-01
     2.559524972087644        0.2078832853983743E-01
     2.565328883588976        0.2024707449161408E-01
     2.571132795090309        0.1971145200403788E-01
     2.576936706591642        0.1918134992505877E-01
     2.582740618092974        0.1865665835998926E-01
     2.588544529594307        0.1813726865057356E-01
     2.594348441095639        0.1762307335424987E-01
     2.600152352596972        0.1711396622360498E-01
     2.605956264098304        0.1660984218601778E-01
     2.611760175599636        0.1611059732349223E-01
     2.617564087100969        0.1561612885267564E-01
     2.623367998602302        0.1512633510513162E-01
     2.629171910103634        0.1464111552066579E-01
     2.634975821604967        0.1416037096508372E-01
     2.640779733106299        0.1368400618062332E-01
     2.646583644607632        0.1321193744714811E-01
     2.652387556108964        0.1274410581886821E-01
     2.658191467610297        0.1228049228981992E-01
     2.663995379111630        0.1182113047535737E-01
     2.669799290612962        0.1136611424502389E-01
     2.675603202114294        0.1091559984543672E-01
     2.681407113615627        0.1046980333795018E-01
     2.687211025116960        0.1002899465175910E-01
     2.693014936618292        0.9593489539600280E-02
     2.698818848119624        0.9163640497106704E-02
     2.704622759620957        0.8739827430942298E-02
     2.710426671122290        0.8322448610441640E-02
     2.716230582623622        0.7911912237882075E-02
     2.722034494124955        0.7508628825078595E-02
     2.727838405626287        0.7113004460873300E-02
     2.733642317127620        0.6725434985262864E-02
     2.739446228628952        0.6346301042196470E-02
     2.745250140130285        0.5975963957037620E-02
     2.751054051631617        0.5614762370697415E-02
     2.756857963132950        0.5263009556423863E-02
     2.762661874634282        0.4920991344299797E-02
     2.768465786135615        0.4588964580637627E-02
     2.774269697636948        0.4267156053327711E-02
     2.780073609138280        0.3955761818841448E-02
     2.785877520639612        0.3654946871400950E-02
     2.791681432140945        0.3364845099330392E-02
     2.797485343642277        0.3085559477467672E-02
     2.803289255143610        0.2817162447378550E-02
     2.809093166644943        0.2559696438600351E-02
     2.814897078146275        0.2313174483655342E-02
     2.820700989647608        0.2077580876221665E-02
     2.826504901148940        0.1852871814044920E-02
     2.832308812650273        0.1638975953155287E-02
     2.838112724151605        0.1435794772537705E-02
     2.843916635652938        0.1243202598586055E-02
     2.849720547154270        0.1061046045983508E-02
     2.855524458655603        0.8891424516496463E-03
     2.861328370156935        0.7272765068504841E-03
     2.867132281658268        0.5751934609515594E-03
     2.872936193159600        0.4325851970656344E-03
     2.878740104660933        0.2990594840659119E-03
     2.884544016162265        0.1740615413973770E-03
     2.890347927663598        0.5659761626212228E-04
     2.896151839164931         0.000000000000000    
  0  6  1  0  2.000000   #orbital l, n, z, is_polarized, population
 500    0.1413370129449632E-01     7.052716945953664     # npts, delta, cutoff
     0.000000000000000        0.4831164509355722    
    0.1413370129449632E-01    0.4833056103613069    