<preamble>

<basis_specs>
===============================================================================
Y                    Z=  39    Mass=  88.906        Charge= 0.17977+309
Lmxo=2 Lmxkb= 2    BasisType=split      Semic=T
L=0  Nsemic=1  Cnfigmx=5
          i=1  nzeta=1  polorb=0  (4s)  (semicore shell)
            splnorm:   0.15000    
               vcte:    40.000    
               rinn:    3.1381    
               qcoe:    0.0000    
               qyuk:    0.0000    
               qwid:   0.10000E-01
                rcs:    3.4832    
            lambdas:    1.0000    
          i=2  nzeta=2  polorb=0  (5s)  (to be polarized non-perturbatively)
            splnorm:   0.15000    
               vcte:    40.000    
               rinn:    7.8485    
               qcoe:    0.0000    
               qyuk:    0.0000    
               qwid:   0.10000E-01
                rcs:    8.7206      6.4642    
            lambdas:    1.0000      1.0000    
L=1  Nsemic=1  Cnfigmx=5
          i=1  nzeta=1  polorb=0  (4p)  (semicore shell)
            splnorm:   0.15000    
               vcte:    40.000    
               rinn:    3.6547    
               qcoe:    0.0000    
               qyuk:    0.0000    
               qwid:   0.10000E-01
                rcs:    4.0567    
            lambdas:    1.0000    
          i=2  nzeta=1  polorb=0  (5p)  (non-perturbative polarization shell)
            splnorm:   0.15000    
               vcte:    40.000    
               rinn:    7.8564    
               qcoe:    0.0000    
               qyuk:    0.0000    
               qwid:   0.10000E-01
                rcs:    8.7206    
            lambdas:    1.0000    
L=2  Nsemic=0  Cnfigmx=4
          i=1  nzeta=2  polorb=0  (4d)
            splnorm:   0.15000    
               vcte:    40.000    
               rinn:    6.7947    
               qcoe:    0.0000    
               qyuk:    0.0000    
               qwid:   0.10000E-01
                rcs:    7.5497      5.2170    
            lambdas:    1.0000      1.0000    
-------------------------------------------------------------------------------
L=0  Nkbl=2  erefs: 0.17977+309 0.17977+309
L=1  Nkbl=2  erefs: 0.17977+309 0.17977+309
L=2  Nkbl=1  erefs: 0.17977+309
===============================================================================
</basis_specs>

<pseudopotential_header>
 Y  pw nrl pcec
 ONCVPSP-3.2018-03-09Hamann's oncvpsp                        
 4s 2.00  r= 1.61/4p 6.00  r= 1.51/4d 1.00  r= 1.57/                    4s:4p:4d:5s:
</pseudopotential_header>
</preamble>
Y                             # Symbol
Y                             # Label
   39                         # Atomic number
     11.0000000000                             # Valence charge
     88.9060000000        # Mass 
     126.678006990        # Self energy 
   2   7                      # Lmax for basis, no. of nl orbitals 
   2   6                      # Lmax for projectors, no. of nl KB projectors
# PAOs:__________________________
  0  4  1  0  2.000000   #orbital l, n, z, is_polarized, population
 500    0.6980441873740810E-02     3.483240494996664     # npts, delta, cutoff
     0.000000000000000        0.1591840299931064    
    0.6980441873740810E-02    0.1593206464009992    
    0.1396088374748162E-01    0.1597391283604150    
    0.2094132562122243E-01    0.1604362519240786    
    0.2792176749496324E-01    0.1614114926804222    
    0.3490220936870405E-01    0.1626641184206948    
    0.4188265124244486E-01    0.1641931891541151    
    0.4886309311618567E-01    0.1659975579221246    
    0.5584353498992648E-01    0.1680758718879040    
    0.6282397686366729E-01    0.1704265736416149    
    0.6980441873740810E-01    0.1730479027080282    
    0.7678486061114891E-01    0.1759378972513969    
    0.8376530248488973E-01    0.1790943959742972    
    0.9074574435863053E-01    0.1825150402075703    
    0.9772618623237134E-01    0.1861972761884913    
    0.1047066281061122        0.1901383575241571    
    0.1116870699798530        0.1943353478368978    
    0.1186675118535938        0.1987851235883193    
    0.1256479537273346        0.2034843770783800    
    0.1326283956010754        0.2084296196156959    
    0.1396088374748162        0.2136171848550799    
    0.1465892793485570        0.2190432322981171    
    0.1535697212222978        0.2247037509523932    
    0.1605501630960386        0.2305945631448113    
    0.1675306049697795        0.2367113284842556    
    0.1745110468435203        0.2430495479686923    
    0.1814914887172611        0.2496045682316352    
    0.1884719305910019        0.2563715859227505    
    0.1954523724647427        0.2633456522172330    
    0.2024328143384835        0.2705216774484392    
    0.2094132562122243        0.2778944358581433    
    0.2163936980859651        0.2854585704586555    
    0.2233741399597059        0.2932085980009339    
    0.2303545818334467        0.3011389140427124    
    0.2373350237071875        0.3092437981105882    
    0.2443154655809283        0.3175174189499046    
    0.2512959074546692        0.3259538398562172    
    0.2582763493284100        0.3345470240820410    
    0.2652567912021508        0.3432908403125436    
    0.2722372330758916        0.3521790682037800    
    0.2792176749496324        0.3612054039770519    
    0.2861981168233732        0.3703634660629276    
    0.2931785586971140        0.3796468007884530    
    0.3001590005708548        0.3890488881010713    
    0.3071394424445956        0.3985631473227763    
    0.3141198843183365        0.4081829429280203    
    0.3211003261920773        0.4179015903389454    
    0.3280807680658181        0.4277123617315000    
    0.3350612099395589        0.4376084918460743    
    0.3420416518132997        0.4475831837963156    
    0.3490220936870405        0.4576296148698424    
    0.3560025355607813        0.4677409423146504    
    0.3629829774345221        0.4779103091050640    
    0.3699634193082629        0.4881308496811719    
    0.3769438611820037        0.4983956956557747    
    0.3839243030557445        0.5086979814829744    
    0.3909047449294853        0.5190308500826164    
    0.3978851868032262        0.5293874584149398    
    0.4048656286769670        0.5397609829998691    
    0.4118460705507078        0.5501446253755439    
    0.4188265124244486        0.5605316174907777    
    0.4258069542981894        0.5709152270262975    
    0.4327873961719302        0.5812887626397432    
    0.4397678380456710        0.5916455791295600    
    0.4467482799194119        0.6019790825130619    
    0.4537287217931527        0.6122827350141081    
    0.4607091636668935        0.6225500599559911    
    0.4676896055406343        0.6327746465552953    
    0.4746700474143751        0.6429501546126642    
    0.4816504892881159        0.6530703190965776    
    0.4886309311618567        0.6631289546164116    
    0.4956113730355975        0.6731199597812502    
    0.5025918149093384        0.6830373214410644    
    0.5095722567830792        0.6928751188071032    
    0.5165526986568200        0.7026275274484651    
    0.5235331405305608        0.7122888231620669    
    0.5305135824043016        0.7218533857133611    
    0.5374940242780424        0.7313157024453704    
    0.5444744661517832        0.7406703717537785    
    0.5514549080255240        0.7499121064260149    
    0.5584353498992648        0.7590357368424611    
    0.5654157917730056        0.7680362140380589    
    0.5723962336467464        0.7769086126228474    
    0.5793766755204872        0.7856481335600796    
    0.5863571173942280        0.7942501068007904    
    0.5933375592679688        0.8027099937738598    
    0.6003180011417096        0.8110233897307767    
    0.6072984430154504        0.8191860259445369    
    0.6142788848891912        0.8271937717622090    
    0.6212593267629321        0.8350426365109451    
    0.6282397686366730        0.8427287712573457    
    0.6352202105104138        0.8502484704202564    
    0.6422006523841546        0.8575981732372639    
    0.6491810942578954        0.8647744650852774    
    0.6561615361316362        0.8717740786557708    
    0.6631419780053770        0.8785938949854161    
    0.6701224198791178        0.8852309443429563    
    0.6771028617528586        0.8916824069733350    
    0.6840833036265994        0.8979456137002622    
    0.6910637455003402        0.9040180463884581    
    0.6980441873740810        0.9098973382670518    
    0.7050246292478218        0.9155812741156405    
    0.7120050711215626        0.9210677903147230    
    0.7189855129953034        0.9263549747622543    
    0.7259659548690442        0.9314410666582785    
    0.7329463967427851        0.9363244561596267    
    0.7399268386165259        0.9410036839067875    
    0.7469072804902667        0.9454774404252139    
    0.7538877223640075        0.9497445654033327    
    0.7608681642377483        0.9538040468497040    
    0.7678486061114891        0.9576550201317786    
    0.7748290479852299        0.9612967668988669    
    0.7818094898589707        0.9647287138919266    
    0.7887899317327115        0.9679504316429094    
    0.7957703736064523        0.9709616330664433    
    0.8027508154801931        0.9737621719466866    
    0.8097312573539340        0.9763520413222605    
    0.8167116992276748        0.9787313717722141    
    0.8236921411014156        0.9809004296060198    
    0.8306725829751564        0.9828596149606326    
    0.8376530248488973        0.9846094598077081    
    0.8446334667226381        0.9861506258740927    
    0.8516139085963789        0.9874839024787241    
    0.8585943504701197        0.9886102042891169    
    0.8655747923438605        0.9895305690006420    
    0.8725552342176013        0.9902461549417865    
    0.8795356760913421        0.9907582386086486    
    0.8865161179650829        0.9910682121318858    
    0.8934965598388237        0.9911775806793679    
    0.9004770017125645        0.9910879597977957    
    0.9074574435863053        0.9908010726965117    
    0.9144378854600461        0.9903187474767760    
    0.9214183273337869        0.9896429143097243    
    0.9283987692075277        0.9887756025662645    
    0.9353792110812685        0.9877189379021111    
    0.9423596529550093        0.9864751393011815    
    0.9493400948287501        0.9850465160805305    
    0.9563205367024910        0.9834354648600021    
    0.9633009785762318        0.9816444664997467    
    0.9702814204499726        0.9796760830087214    
    0.9772618623237134        0.9775329544272731    
    0.9842423041974543        0.9752177956868859    
    0.9912227460711951        0.9727333934501102    
    0.9982031879449359        0.9700826029336985    
     1.005183629818677        0.9672683447179198    
     1.012164071692417        0.9642936015449761    
     1.019144513566158        0.9611614151094340    
     1.026124955439899        0.9578748888036388    
     1.033105397313640        0.9544371845100752    
     1.040085839187381        0.9508514833060002    
     1.047066281061122        0.9471210305045873    
     1.054046722934862        0.9432491143389994    
     1.061027164808603        0.9392390627270429    
     1.068007606682344        0.9350942400835167    
     1.074988048556085        0.9308180441462721    
     1.081968490429826        0.9264139028185203    
     1.088948932303566        0.9218852710298299    
     1.095929374177307        0.9172356276182397    
     1.102909816051048        0.9124684722358541    
     1.109890257924789        0.9075873222802198    
     1.116870699798530        0.9025957098537724    
     1.123851141672271        0.8974971787535387    
     1.130831583546011        0.8922952814932761    
     1.137812025419752        0.8869935763601460    
     1.144792467293493        0.8815956245079822    
     1.151772909167234        0.8761049870891513    
     1.158753351040974        0.8705252224269600    
     1.165733792914715        0.8648598832304984    
     1.172714234788456        0.8591125138537630    
     1.179694676662197        0.8532866476008411    
     1.186675118535938        0.8473858040788930    
     1.193655560409679        0.8414134866005978    
     1.200636002283419        0.8353731796376938    
     1.207616444157160        0.8292683463271627    
     1.214596886030901        0.8231024260315737    
     1.221577327904642        0.8168788319550379    
     1.228557769778382        0.8106009488161592    
     1.235538211652123        0.8042721305793220    
     1.242518653525864        0.7978956982455968    
     1.249499095399605        0.7914749377044745    
     1.256479537273346        0.7850130976476045    
     1.263459979147087        0.7785133875456299    
     1.270440421020828        0.7719789756891702    
     1.277420862894568        0.7654129872949395    
     1.284401304768309        0.7588185026779227    
     1.291381746642050        0.7521985554904858    
     1.298362188515791        0.7455561310292181    
     1.305342630389531        0.7388941646102658    
     1.312323072263272        0.7322155400138362    
     1.319303514137013        0.7255230879985142    
     1.326283956010754        0.7188195848859426    
     1.333264397884495        0.7121077512163851    
     1.340244839758236        0.7053902504756190    
     1.347225281631976        0.6986696878935362    
     1.354205723505717        0.6919486093147830    
     1.361186165379458        0.6852295001417008    
     1.368166607253199        0.6785147843497721    
     1.375147049126940        0.6718068235757095    
     1.382127491000680        0.6651079162782702    
     1.389107932874421        0.6584202969718156    
     1.396088374748162        0.6517461355325721    
     1.403068816621903        0.6450875365774880    
     1.410049258495644        0.6384465389155264    
     1.417029700369384        0.6318251150711673    
     1.424010142243125        0.6252251708798299    
     1.430990584116866        0.6186485451548726    
     1.437971025990607        0.6120970094257636    
     1.444951467864348        0.6055722677469519    
     1.451931909738088        0.5990759565769228    
     1.458912351611829        0.5926096447268419    
     1.465892793485570        0.5861748333781533    
     1.472873235359311        0.5797729561690325    
     1.479853677233052        0.5734053785445282    
     1.486834119106793        0.5670733980524307    
     1.493814560980533        0.5607782461603933    
     1.500795002854274        0.5545210878393135    
     1.507775444728015        0.5483030219752634    
     1.514755886601756        0.5421250818461191    
     1.521736328475497        0.5359882356599771    
     1.528716770349237        0.5298933871542052    
     1.535697212222978        0.5238413762539541    
     1.542677654096719        0.5178329797888997    
     1.549658095970460        0.5118689122669429    
     1.556638537844201        0.5059498266496413    
     1.563618979717941        0.5000763152063510    
     1.570599421591682        0.4942489107530494    
     1.577579863465423        0.4884680880232378    
     1.584560305339164        0.4827342640158375    
     1.591540747212905        0.4770477976173094    
     1.598521189086646        0.4714089904808866    
     1.605501630960386        0.4658180914385140    
     1.612482072834127        0.4602753029716187    
     1.619462514707868        0.4547807883348354    
     1.626442956581609        0.4493346790318957    
     1.633423398455350        0.4439370816290308    
     1.640403840329090        0.4385880819872056    
     1.647384282202831        0.4332877455220492    
     1.654364724076572        0.4280361163569212    
     1.661345165950313        0.4228332173087069    
     1.668325607824054        0.4176790511507147    
     1.675306049697795        0.4125736017640176    
     1.682286491571535        0.4075168349618676    
     1.689266933445276        0.4025086991397918    
     1.696247375319017        0.3975491259913406    
     1.703227817192758        0.3926380312110183    
     1.710208259066498        0.3877753151764147    
     1.717188700940239        0.3829608636071794    
     1.724169142813980        0.3781945482031326    
     1.731149584687721        0.3734762272620873    
     1.738130026561462        0.3688057462779369    
     1.745110468435203        0.3641829385195595    
     1.752090910308943        0.3596076255910636    
     1.759071352182684        0.3550796179739013    
     1.766051794056425        0.3505987155513512    
     1.773032235930166        0.3461647081158711    
     1.780012677803906        0.3417773758598000    
     1.786993119677647        0.3374364898498814    
     1.793973561551388        0.3331418124860757    
     1.800954003425129        0.3288930979450956    
     1.807934445298870        0.3246900926091206    
     1.814914887172611        0.3205325354800992    
     1.821895329046352        0.3164201585800716    
     1.828875770920092        0.3123526873379040    
     1.835856212793833        0.3083298409628421    
     1.842836654667574        0.3043513328052597    
     1.849817096541315        0.3004168707049807    
     1.856797538415055        0.2965261573275443    
     1.863777980288796        0.2926788904887598    
     1.870758422162537        0.2888747634679072    
     1.877738864036278        0.2851134653099165    
     1.884719305910019        0.2813946811168486    
     1.891699747783760        0.2777180923290146    
     1.898680189657500        0.2740833769960188    
     1.905660631531241        0.2704902100380551    
     1.912641073404982        0.2669382634977321    
     1.919621515278723        0.2634272067827201    
     1.926601957152464        0.2599567068995023    
     1.933582399026204        0.2565264286784950    
     1.940562840899945        0.2531360349907997    
     1.947543282773686        0.2497851869568569    
     1.954523724647427        0.2464735441472277    
     1.961504166521168        0.2432007647757676    
     1.968484608394909        0.2399665058854175    
     1.975465050268649        0.2367704235268368    
     1.982445492142390        0.2336121729301136    
     1.989425934016131        0.2304914086697563    
     1.996406375889872        0.2274077848231825    
     2.003386817763613        0.2243609551229086    
     2.010367259637353        0.2213505731026399    
     2.017347701511094        0.2183762922374461    
     2.024328143384835        0.2154377660782224    
     2.031308585258576        0.2125346483806058    
     2.038289027132317        0.2096665932285311    
     2.045269469006057        0.2068332551525911    
     2.052249910879798        0.2040342892433752    
     2.059230352753539        0.2012693512599445    
     2.066210794627280        0.1985380977335942    
     2.073191236501021        0.1958401860670679    
     2.080171678374761        0.1931752746293608    
     2.087152120248502        0.1905430228462633    
     2.094132562122243        0.1879430912867776    
     2.101113003995984        0.1853751417455460    
     2.108093445869724        0.1828388373214239    
     2.115073887743466        0.1803338424923202    
     2.122054329617206        0.1778598231864335    
     2.129034771490947        0.1754164468499980    
     2.136015213364688        0.1730033825116638    
     2.142995655238429        0.1706203008436163    
     2.149976097112170        0.1682668742195491    
     2.156956538985910        0.1659427767695931    
     2.163936980859651        0.1636476844323097    
     2.170917422733392        0.1613812750038443    
     2.177897864607133        0.1591432281843356    
     2.184878306480873        0.1569332256216792    
     2.191858748354615        0.1547509509527339    
     2.198839190228355        0.1525960898420591    
     2.205819632102096        0.1504683300182702    
     2.212800073975837        0.1483673613080923    
     2.219780515849578        0.1462928756681967    
     2.226760957723319        0.1442445672148962    
     2.233741399597059        0.1422221322517732    
     2.240721841470800        0.1402252692953188    
     2.247702283344541        0.1382536790986472    
     2.254682725218282        0.1363070646733626    
     2.261663167092022        0.1343851313096369    
     2.268643608965763        0.1324875865945689    
     2.275624050839504        0.1306141404288864    
     2.282604492713245        0.1287645050420515    
     2.289584934586986        0.1269383950058254    
     2.296565376460726        0.1251355272463574    
     2.303545818334467        0.1233556210548429    
     2.310526260208208        0.1215983980968136    
     2.317506702081949        0.1198635824201059    
     2.324487143955690        0.1181509004615600    
     2.331467585829431        0.1164600810524992    
     2.338448027703171        0.1147908554230327    
     2.345428469576912        0.1131429572052328    
     2.352408911450653        0.1115161224352285    
     2.359389353324394        0.1099100895542558    
     2.366369795198135        0.1083245994087099    
     2.373350237071875        0.1067593952492391    
     2.380330678945616        0.1052142227289164    
     2.387311120819357        0.1036888299005298    
     2.394291562693098        0.1021829672130256    
     2.401272004566839        0.1006963875071406    
     2.408252446440580        0.9922884601025893E-01
     2.415232888314320        0.9778010033052259E-01
     2.422213330188061        0.9634991045023192E-01
     2.429193772061802        0.9493803871856622E-01
     2.436174213935543        0.9354424984365009E-01
     2.443154655809284        0.9216831088400129E-01
     2.450135097683024        0.9080999123938356E-01
     2.457115539556765        0.8946906264109145E-01
     2.464095981430506        0.8814529914169668E-01
     2.471076423304247        0.8683847710427824E-01
     2.478056865177988        0.8554837519116155E-01
     2.485037307051728        0.8427477435219149E-01
     2.492017748925469        0.8301745781256115E-01
     2.498998190799210        0.8177621106021919E-01
     2.505978632672951        0.8055082183287562E-01
     2.512959074546692        0.7934108010462852E-01
     2.519939516420433        0.7814677807223309E-01
     2.526919958294173        0.7696771014102639E-01
     2.533900400167914        0.7580367291053343E-01
     2.540880842041655        0.7465446515976983E-01
     2.547861283915396        0.7351988783225585E-01
     2.554841725789136        0.7239974402076303E-01
     2.561822167662877        0.7129383895180831E-01
     2.568802609536618        0.7020197996990840E-01
     2.575783051410359        0.6912397652161349E-01
     2.582763493284100        0.6805964013933441E-01
     2.589743935157840        0.6700878442497274E-01
     2.596724377031582        0.6597122503337427E-01
     2.603704818905322        0.6494677965561500E-01
     2.610685260779063        0.6393526800213117E-01
     2.617665702652804        0.6293651178570914E-01
     2.624646144526545        0.6195033470434463E-01
     2.631626586400285        0.6097656242398239E-01
     2.638607028274026        0.6001502256114807E-01
     2.645587470147767        0.5906554466548397E-01
     2.652567912021508        0.5812796020219417E-01
     2.659548353895249        0.5720210253441569E-01
     2.666528795768989        0.5628780690551964E-01
     2.673509237642730        0.5538491042135194E-01
     2.680489679516471        0.5449325203242513E-01
     2.687470121390212        0.5361267251606872E-01
     2.694450563263953        0.5274301445854201E-01
     2.701431005137694        0.5188412223712281E-01
     2.708411447011434        0.5103584200217818E-01
     2.715391888885175        0.5019802165921866E-01
     2.722372330758916        0.4937051085095186E-01
     2.729352772632657        0.4855316093933486E-01
     2.736333214506398        0.4774582498763463E-01
     2.743313656380138        0.4694835774250190E-01
     2.750294098253879        0.4616061561606470E-01
     2.757274540127620        0.4538245666804577E-01
     2.764254982001361        0.4461374058791141E-01
     2.771235423875102        0.4385432867705388E-01
     2.778215865748842        0.4310408383101463E-01
     2.785196307622583        0.4236287052175153E-01
     2.792176749496324        0.4163055477995550E-01
     2.799157191370065        0.4090700417741943E-01
     2.806137633243805        0.4019208780946451E-01
     2.813118075117547        0.3948567627742739E-01
     2.820098516991287        0.3878764167121196E-01
     2.827078958865028        0.3809785755190761E-01
     2.834059400738769        0.3741619893448148E-01
     2.841039842612510        0.3674254227054111E-01
     2.848020284486251        0.3607676543117729E-01
     2.855000726359991        0.3541874768988573E-01
     2.861981168233732        0.3476836970557021E-01
     2.868961610107473        0.3412551350563287E-01
     2.875942051981214        0.3349006246914937E-01
     2.882922493854954        0.3286190131013535E-01
     2.889902935728696        0.3224091606090391E-01
     2.896883377602436        0.3162699405551594E-01
     2.903863819476177        0.3102002391332657E-01
     2.910844261349918        0.3041989552262811E-01
     2.917824703223659        0.2982650002439127E-01
     2.924805145097400        0.2923972979610779E-01
     2.931785586971140        0.2865947843573195E-01
     2.938766028844881        0.2808564074572682E-01
     2.945746470718622        0.2751811271721325E-01
     2.952726912592363        0.2695679151422371E-01
     2.959707354466103        0.2640157545806169E-01
     2.966687796339844        0.2585236401176768E-01
     2.973668238213585        0.2530905776469337E-01
     2.980648680087326        0.2477155841718184E-01
     2.987629121961067        0.2423976876535851E-01
     2.994609563834807        0.2371359268602981E-01
     3.001590005708549        0.2319293512169177E-01
     3.008570447582289        0.2267770206564902E-01
     3.015550889456030        0.2216780054724280E-01
     3.022531331329771        0.2166313861719120E-01
     3.029511773203512        0.2116362533303785E-01
     3.036492215077252        0.2066917074471339E-01
     3.043472656950993        0.2017968588020666E-01
     3.050453098824734        0.1969508273134632E-01
     3.057433540698475        0.1921527423969434E-01
     3.064413982572216        0.1874017428254834E-01
     3.071394424445956        0.1826969765905614E-01
     3.078374866319697        0.1780376007643892E-01
     3.085355308193438        0.1734227813632475E-01
     3.092335750067179        0.1688516932119246E-01
     3.099316191940920        0.1643235198092296E-01
     3.106296633814661        0.1598374531946089E-01
     3.113277075688401        0.1553926938158357E-01
     3.120257517562142        0.1509884503977822E-01
     3.127237959435883        0.1466239398122595E-01
     3.134218401309624        0.1422983869489301E-01
     3.141198843183365        0.1380110245872792E-01
     3.148179285057105        0.1337610932696357E-01
     3.155159726930846        0.1295478411752534E-01
     3.162140168804587        0.1253705240118553E-01
     3.169120610678328        0.1212284058315703E-01
     3.176101052552069        0.1171207703605398E-01
     3.183081494425809        0.1130469713133495E-01
     3.190061936299550        0.1090065427979972E-01
     3.197042378173291        0.1049993488531427E-01
     3.204022820047032        0.1010257263120443E-01
     3.211003261920772        0.9708658507125769E-02
     3.217983703794514        0.9318345226250651E-02
     3.224964145668254        0.8931846402901089E-02
     3.231944587541995        0.8549431679912598E-02
     3.238925029415736        0.8171419164663376E-02
     3.245905471289477        0.7798166373608899E-02
     3.252885913163218        0.7430060613888387E-02
     3.259866355036958        0.7067509458665190E-02
     3.266846796910699        0.6710931744957710E-02
     3.273827238784440        0.6360749348845470E-02
     3.280807680658181        0.6017379868182995E-02
     3.287788122531921        0.5681230257677835E-02
     3.294768564405663        0.5352691405508053E-02
     3.301749006279403        0.5032133606224794E-02
     3.308729448153144        0.4719902864971875E-02
     3.315709890026885        0.4416317958273921E-02
     3.322690331900626        0.4121668173331081E-02
     3.329670773774366        0.3836211648524929E-02
     3.336651215648107        0.3560174241008017E-02
     3.343631657521848        0.3293748851714580E-02
     3.350612099395589        0.3037095143102022E-02
     3.357592541269330        0.2790339589910091E-02
     3.364572983143070        0.2553575807798864E-02
     3.371553425016811        0.2326865108606462E-02
     3.378533866890552        0.2110237233812108E-02
     3.385514308764293        0.1903691219208630E-02
     3.392494750638034        0.1707196343158482E-02
     3.399475192511775        0.1520693107134524E-02
     3.406455634385515        0.1344094188764417E-02
     3.413436076259256        0.1177285291113118E-02
     3.420416518132997        0.1020125781372308E-02
     3.427396960006738        0.8724489553654742E-03
     3.434377401880479        0.7340616557952324E-03
     3.441357843754219        0.6047427542924122E-03
     3.448338285627960        0.4842395384442792E-03
     3.455318727501701        0.3722599379115074E-03
     3.462299169375442        0.2684555605881974E-03
     3.469279611249183        0.1723810284029021E-03
     3.476260053122923        0.8337489098575083E-04
     3.483240494996664         0.000000000000000    
  0  5  1  0  2.000000   #orbital l, n, z, is_polarized, population
 500    0.1747607738606960E-01     8.720562615648728     # npts, delta, cutoff
     0.000000000000000        0.6703626822321475E-01
    0.1747607738606960E-01    0.6739222740971668E-01
    0.3495215477213919E-01    0.6846163143714172E-01