<preamble>

<basis_specs>
===============================================================================
Zr                   Z=  40    Mass=  91.224        Charge= 0.17977+309
Lmxo=2 Lmxkb= 2    BasisType=split      Semic=T
L=0  Nsemic=1  Cnfigmx=5
          i=1  nzeta=1  polorb=0  (4s)  (semicore shell)
            splnorm:   0.15000    
               vcte:    40.000    
               rinn:    2.9876    
               qcoe:    0.0000    
               qyuk:    0.0000    
               qwid:   0.10000E-01
                rcs:    3.3195    
            lambdas:    1.0000    
          i=2  nzeta=2  polorb=0  (5s)  (to be polarized non-perturbatively)
            splnorm:   0.15000    
               vcte:    40.000    
               rinn:    7.4952    
               qcoe:    0.0000    
               qyuk:    0.0000    
               qwid:   0.10000E-01
                rcs:    8.3281      6.1300    
            lambdas:    1.0000      1.0000    
L=1  Nsemic=1  Cnfigmx=5
          i=1  nzeta=1  polorb=0  (4p)  (semicore shell)
            splnorm:   0.15000    
               vcte:    40.000    
               rinn:    3.4482    
               qcoe:    0.0000    
               qyuk:    0.0000    
               qwid:   0.10000E-01
                rcs:    3.8275    
            lambdas:    1.0000    
          i=2  nzeta=1  polorb=0  (5p)  (non-perturbative polarization shell)
            splnorm:   0.15000    
               vcte:    40.000    
               rinn:    7.5028    
               qcoe:    0.0000    
               qyuk:    0.0000    
               qwid:   0.10000E-01
                rcs:    8.3281    
            lambdas:    1.0000    
L=2  Nsemic=0  Cnfigmx=4
          i=1  nzeta=2  polorb=0  (4d)
            splnorm:   0.15000    
               vcte:    40.000    
               rinn:    6.0254    
               qcoe:    0.0000    
               qyuk:    0.0000    
               qwid:   0.10000E-01
                rcs:    6.6948      4.5432    
            lambdas:    1.0000      1.0000    
-------------------------------------------------------------------------------
L=0  Nkbl=2  erefs: 0.17977+309 0.17977+309
L=1  Nkbl=2  erefs: 0.17977+309 0.17977+309
L=2  Nkbl=1  erefs: 0.17977+309
===============================================================================
</basis_specs>

<pseudopotential_header>
 Zr pw nrl pcec
 ONCVPSP-3.2018-03-09Hamann's oncvpsp                        
 4s 2.00  r= 1.57/4p 6.00  r= 1.57/4d 2.00  r= 1.51/                    4s:4p:4d:5s:
</pseudopotential_header>
</preamble>
Zr                            # Symbol
Zr                            # Label
   40                         # Atomic number
     12.0000000000                             # Valence charge
     91.2240000000        # Mass 
     155.872858346        # Self energy 
   2   7                      # Lmax for basis, no. of nl orbitals 
   2   6                      # Lmax for projectors, no. of nl KB projectors
# PAOs:__________________________
  0  4  1  0  2.000000   #orbital l, n, z, is_polarized, population
 500    0.6652355795929194E-02     3.319525542168668     # npts, delta, cutoff
     0.000000000000000        0.2093175712002801    
    0.6652355795929194E-02    0.2094556987499443    
    0.1330471159185839E-01    0.2098825127481047    
    0.1995706738778758E-01    0.2105935362816221    
    0.2660942318371677E-01    0.2115882620749696    
    0.3326177897964597E-01    0.2128659823775663    
    0.3991413477557516E-01    0.2144257884617435    
    0.4656649057150435E-01    0.2162665711756888    
    0.5321884636743355E-01    0.2183870217644285    
    0.5987120216336275E-01    0.2207856328711177    
    0.6652355795929193E-01    0.2234606997007824    
    0.7317591375522113E-01    0.2264103213412964    
    0.7982826955115033E-01    0.2296324022395039    
    0.8648062534707952E-01    0.2331246538312955    
    0.9313298114300871E-01    0.2368845963247295    
    0.9978533693893790E-01    0.2409095606353529    
    0.1064376927348671        0.2451966904728535    
    0.1130900485307963        0.2497429445781291    
    0.1197424043267255        0.2545450991097729    
    0.1263947601226547        0.2595997501788946    
    0.1330471159185839        0.2649033165310963    
    0.1396994717145131        0.2704520423743214    
    0.1463518275104423        0.2762420003511803    
    0.1530041833063714        0.2822690946542434    
    0.1596565391023007        0.2885290642826589    
    0.1663088948982298        0.2950174864383384    
    0.1729612506941590        0.3017297800597957    
    0.1796136064900882        0.3086612094916004    
    0.1862659622860174        0.3158068882872464    
    0.1929183180819466        0.3231617831430901    
    0.1995706738778758        0.3307207179608493    
    0.2062230296738050        0.3384783780359886    
    0.2128753854697342        0.3464293143691534    
    0.2195277412656634        0.3545679480976413    
    0.2261800970615926        0.3628885750437163    
    0.2328324528575218        0.3713853703764062    
    0.2394848086534510        0.3800523933832267    
    0.2461371644493802        0.3888835923481062    
    0.2527895202453094        0.3978728095315894    
    0.2594418760412385        0.4070137862492186    
    0.2660942318371677        0.4163001680438044    
    0.2727465876330969        0.4257255099471116    
    0.2793989434290262        0.4352832818263069    
    0.2860512992249553        0.4449668738103253    
    0.2927036550208845        0.4547696017911395    
    0.2993560108168137        0.4646847129947410    
    0.3060083666127429        0.4747053916164634    
    0.3126607224086721        0.4848247645151225    
    0.3193130782046013        0.4950359069602758    
    0.3259654340005305        0.5053318484267560    
    0.3326177897964597        0.5157055784304873    
    0.3392701455923889        0.5261500523994413    
    0.3459225013883181        0.5366581975734767    
    0.3525748571842472        0.5472229189266637    
    0.3592272129801765        0.5578371051056038    
    0.3658795687761057        0.5684936343771236    
    0.3725319245720348        0.5791853805786715    
    0.3791842803679640        0.5899052190646210    
    0.3858366361638932        0.6006460326416484    
    0.3924889919598224        0.6114007174862904    
    0.3991413477557516        0.6221621890377385    
    0.4057937035516808        0.6329233878588983    
    0.4124460593476100        0.6436772854587413    
    0.4190984151435392        0.6544168900689656    
    0.4257507709394684        0.6651352523679903    
    0.4324031267353976        0.6758254711453497    
    0.4390554825313268        0.6864806988995970    
    0.4457078383272560        0.6970941473628728    
    0.4523601941231852        0.7076590929453821    
    0.4590125499191144        0.7181688820931091    
    0.4656649057150435        0.7286169365521958    
    0.4723172615109728        0.7389967585335424    
    0.4789696173069020        0.7493019357713125    
    0.4856219731028311        0.7595261464691819    
    0.4922743288987603        0.7696631641283199    
    0.4989266846946895        0.7797068622512965    
    0.5055790404906187        0.7896512189162710    
    0.5122313962865479        0.7994903212160349    
    0.5188837520824771        0.8092183695567163    
    0.5255361078784063        0.8188296818111432    
    0.5321884636743355        0.8283186973221529    
    0.5388408194702646        0.8376799807513492    
    0.5454931752661939        0.8469082257690937    
    0.5521455310621231        0.8559982585817894    
    0.5587978868580523        0.8649450412927867    
    0.5654502426539815        0.8737436750935548    
    0.5721025984499106        0.8823894032820276    
    0.5787549542458399        0.8908776141053752    
    0.5854073100417690        0.8992038434247427    
    0.5920596658376982        0.9073637771998071    
    0.5987120216336275        0.9153532537913532    
    0.6053643774295566        0.9231682660803655    
    0.6120167332254858        0.9308049634024632    
    0.6186690890214150        0.9382596532968575    
    0.6253214448173442        0.9455288030692951    
    0.6319738006132734        0.9526090411688275    
    0.6386261564092026        0.9594971583785286    
    0.6452785122051318        0.9661901088206361    
    0.6519308680010609        0.9726850107769003    
    0.6585832237969902        0.9789791473252322    
    0.6652355795929193        0.9850699667940714    
    0.6718879353888486        0.9909550830361794    
    0.6785402911847778        0.9966322755238930    
    0.6851926469807069         1.002099489268093    
    0.6918450027766362         1.007354834563528    
    0.6984973585725653         1.012396586563309    
    0.7051497143684945         1.017223184685701    
    0.7118020701644238         1.021833231856593    
    0.7184544259603529         1.026225493591225    
    0.7251067817562821         1.030398896919051    
    0.7317591375522113         1.034352529155732    
    0.7384114933481405         1.038085636526579    
    0.7450638491440696         1.041597622645820    
    0.7517162049399989         1.044888046856354    
    0.7583685607359281         1.047956622434763    
    0.7650209165318572         1.050803214666490    
    0.7716732723277865         1.053427838796246    
    0.7783256281237156         1.055830657858829    
    0.7849779839196448         1.058011980395614    
    0.7916303397155741         1.059972258062094    
    0.7982826955115032         1.061712083131873    
    0.8049350513074325         1.063232185902641    
    0.8115874071033616         1.064533432009627    
    0.8182397628992908         1.065616819652098    
    0.8248921186952201         1.066483476738496    
    0.8315444744911492         1.067134657955734    
    0.8381968302870784         1.067571741768246    
    0.8448491860830076         1.067796227352290    
    0.8515015418789368         1.067809731470980    
    0.8581538976748659         1.067613985295482    
    0.8648062534707952         1.067210831177718    
    0.8714586092667244         1.066602219379848    
    0.8781109650626535         1.065790204765729    
    0.8847633208585828         1.064776943459401    
    0.8914156766545119         1.063564689475604    
    0.8980680324504411         1.062155791327143    
    0.9047203882463704         1.060552688613823    
    0.9113727440422995         1.058757908597553    
    0.9180250998382288         1.056774062768016    
    0.9246774556341579         1.054603843403222    
    0.9313298114300871         1.052250020129042    
    0.9379821672260164         1.049715436481688    
    0.9446345230219455         1.047003006476950    
    0.9512868788178747         1.044115711189791    
    0.9579392346138039         1.041056595347763    
    0.9645915904097331         1.037828763941519    
    0.9712439462056622         1.034435378855519    
    0.9778963020015915         1.030879655855935    
    0.9845486577975207         1.027164861053981    
    0.9912010135934498         1.023294306243319    
    0.9978533693893791         1.019271347693230    
     1.004505725185308         1.015099382119445    
     1.011158080981237         1.010781843491224    
     1.017810436777167         1.006322199875514    
     1.024462792573096         1.001723950319815    
     1.031115148369025        0.9969906217753932    
     1.037767504164954        0.9921257660622103    
     1.044419859960883        0.9871329568768867    
     1.051072215756813        0.9820157868448244    
     1.057724571552742        0.9767778646174892    
     1.064376927348671        0.9714228120157455    
     1.071029283144600        0.9659542612199957    
     1.077681638940529        0.9603758520077786    
     1.084333994736459        0.9546912290393667    
     1.090986350532388        0.9489040391918148    
     1.097638706328317        0.9430179289418164    
     1.104291062124246        0.9370365417976513    
     1.110943417920175        0.9309635157804226    
     1.117595773716105        0.9248024809547316    
     1.124248129512034        0.9185570570088684    
     1.130900485307963        0.9122308508845580    
     1.137552841103892        0.9058274544562508    
     1.144205196899821        0.8993504422599201    
     1.150857552695751        0.8928033692712964    
     1.157509908491680        0.8861897687334526    
     1.164162264287609        0.8795131500336438    
     1.170814620083538        0.8727769966292903    
     1.177466975879467        0.8659847640230044    
     1.184119331675396        0.8591398777865528    
     1.190771687471326        0.8522457316336732    
     1.197424043267255        0.8453056855416726    
     1.204076399063184        0.8383230639217472    
     1.210728754859113        0.8313011538380067    
     1.217381110655043        0.8242432032752005    
     1.224033466450972        0.8171524194551759    
     1.230685822246901        0.8100319672021423    
     1.237338178042830        0.8028849673568438    
     1.243990533838759        0.7957144952397754    
     1.250642889634688        0.7885235791636366    
     1.257295245430618        0.7813151989952375    
     1.263947601226547        0.7740922847671198    
     1.270599957022476        0.7668577153391978    
     1.277252312818405        0.7596143171107607    
     1.283904668614334        0.7523648627832110    
     1.290557024410264        0.7451120701739634    
     1.297209380206193        0.7378586010819478    
     1.303861736002122        0.7306070602052009    
     1.310514091798051        0.7233599941110537    
     1.317166447593980        0.7161198902594589    
     1.323818803389909        0.7088891760800046    
     1.330471159185839        0.7016702181031951    
     1.337123514981768        0.6944653211465915    
     1.343775870777697        0.6872767275563967    
     1.350428226573626        0.6801066165051037    
     1.357080582369556        0.6729571033457905    
     1.363732938165485        0.6658302390236678    
     1.370385293961414        0.6587280095454578    
     1.377037649757343        0.6516523355071653    
     1.383690005553272        0.6446050716808012    
     1.390342361349201        0.6375880066605529    
     1.396994717145131        0.6306028625688995    
     1.403647072941060        0.6236512948231168    
     1.410299428736989        0.6167348919625559    
     1.416951784532918        0.6098551755370677    
     1.423604140328848        0.6030136000568567    
     1.430256496124777        0.5962115530039986    
     1.436908851920706        0.5894503549058039    
     1.443561207716635        0.5827312594701183    
     1.450213563512564        0.5760554537826100    
     1.456865919308493        0.5694240585659667    
     1.463518275104423        0.5628381285009003    
     1.470170630900352        0.5562986526087375    
     1.476822986696281        0.5498065546952854    
     1.483475342492210        0.5433626938556128    
     1.490127698288139        0.5369678648561373    
     1.496780054084069        0.5306227977696948    
     1.503432409879998        0.5243281604110276    
     1.510084765675927        0.5180845586866830    
     1.516737121471856        0.5118925371975825    
     1.523389477267785        0.5057525800208600    
     1.530041833063714        0.4996651119283839    
     1.536694188859644        0.4936304997448078    
     1.543346544655573        0.4876490530137276    
     1.549998900451502        0.4817210234146554    
     1.556651256247431        0.4758466051870440    
     1.563303612043361        0.4700259386683744    
     1.569955967839290        0.4642591167732669    
     1.576608323635219        0.4585461921611597    
     1.583260679431148        0.4528871850084192    
     1.589913035227077        0.4472820903111365    
     1.596565391023006        0.4417308837613088    
     1.603217746818936        0.4362335230409498    
     1.609870102614865        0.4307899472459346    
     1.616522458410794        0.4254000759497606    
     1.623174814206723        0.4200638102528910    
     1.629827170002653        0.4147810339166477    
     1.636479525798582        0.4095516144164060    
     1.643131881594511        0.4043754035376136    
     1.649784237390440        0.3992522380435400    
     1.656436593186369        0.3941819403485789    
     1.663088948982298        0.3891643191785485    
     1.669741304778228        0.3841991702071658    
     1.676393660574157        0.3792862766713278    
     1.683046016370086        0.3744254099662906    
     1.689698372166015        0.3696163302213050    
     1.696350727961944        0.3648587868562547    
     1.703003083757874        0.3601525191198346    
     1.709655439553803        0.3554972566097981    
     1.716307795349732        0.3508927197757731    
     1.722960151145661        0.3463386204051588    
     1.729612506941590        0.3418346620925755    
     1.736264862737519        0.3373805406933565    
     1.742917218533449        0.3329759447615243    
     1.749569574329378        0.3286205559727262    
     1.756221930125307        0.3243140495325489    
     1.762874285921236        0.3200560945706440    
     1.769526641717166        0.3158463545210954    
     1.776178997513095        0.3116844874894102    
     1.782831353309024        0.3075701466065530    
     1.789483709104953        0.3035029803703959    
     1.796136064900882        0.2994826329749553    
     1.802788420696811        0.2955087446278007    
     1.809440776492741        0.2915809518559627    
     1.816093132288670        0.2876988878007145    
     1.822745488084599        0.2838621825015429    
     1.829397843880528        0.2800704631696462    
     1.836050199676458        0.2763233544512808    
     1.842702555472387        0.2726204786812543    
     1.849354911268316        0.2689614561268798    
     1.856007267064245        0.2653459052226793    
     1.862659622860174        0.2617734427961206    
     1.869311978656103        0.2582436842846647    
     1.875964334452033        0.2547562439444027    
     1.882616690247962        0.2513107350505269    
     1.889269046043891        0.2479067700899070    
     1.895921401839820        0.2445439609460162    
     1.902573757635749        0.2412219190764366    
     1.909226113431679        0.2379402556831917    
     1.915878469227608        0.2346985818761322    
     1.922530825023537        0.2314965088295800    
     1.929183180819466        0.2283336479324668    
     1.935835536615395        0.2252096109321624    
     1.942487892411324        0.2221240100721981    
     1.949140248207254        0.2190764582240800    
     1.955792604003183        0.2160665690133886    
     1.962444959799112        0.2130939569403466    
     1.969097315595041        0.2101582374950294    
     1.975749671390971        0.2072590272674043    
     1.982402027186900        0.2043959440523615    
     1.989054382982829        0.2015686069498984    
     1.995706738778758        0.1987766364606262    
     2.002359094574687        0.1960196545767439    
     2.009011450370616        0.1932972848686386    
     2.015663806166546        0.1906091525672523    
     2.022316161962475        0.1879548846423611    
     2.028968517758404        0.1853341098769012    
     2.035620873554333        0.1827464589374752    
     2.042273229350263        0.1801915644411762    
     2.048925585146192        0.1776690610188384    
     2.055577940942121        0.1751785853748541    
     2.062230296738050        0.1727197763436638    
     2.068882652533979        0.1702922749430390    
     2.075535008329908        0.1678957244242685    
     2.082187364125838        0.1655297703193505    
     2.088839719921767        0.1631940604853041    
     2.095492075717696        0.1608882451456946    
     2.102144431513625        0.1586119769294737    
     2.108796787309554        0.1563649109072316    
     2.115449143105483        0.1541467046249446    
     2.122101498901413        0.1519570181353206    
     2.128753854697342        0.1497955140268211    
     2.135406210493271        0.1476618574504430    
     2.142058566289200        0.1455557161443479    
     2.148710922085129        0.1434767604564116    
     2.155363277881059        0.1414246633647730    
     2.162015633676988        0.1393991004964588    
     2.168667989472917        0.1373997501441499    
     2.175320345268846        0.1354262932811660    
     2.181972701064776        0.1334784135747308    
     2.188625056860705        0.1315557973975864    
     2.195277412656634        0.1296581338380154    
     2.201929768452563        0.1277851147083395    
     2.208582124248492        0.1259364345519459    
     2.215234480044422        0.1241117906489057    
     2.221886835840351        0.1223108830202357    
     2.228539191636280        0.1205334144308574    
     2.235191547432209        0.1187790903913097    
     2.241843903228138        0.1170476191582619    
     2.248496259024067        0.1153387117338735    
     2.255148614819997        0.1136520818640569    
     2.261800970615926        0.1119874460356795    
     2.268453326411855        0.1103445234727549    
     2.275105682207784        0.1087230361316639    
     2.281758038003713        0.1071227086954486    
     2.288410393799643        0.1055432685672165    
     2.295062749595572        0.1039844458626984    
     2.301715105391501        0.1024459734019923    
     2.308367461187430        0.1009275867005323    
     2.315019816983360        0.9942902395932102E-01
     2.321672172779289        0.9795002605444998E-01
     2.328324528575218        0.9649033652595161E-01
     2.334976884371147        0.9504970156600867E-01
     2.341629240167076        0.9362787000655177E-01
     2.348281595963005        0.9222459330627647E-01
     2.354933951758935        0.9083962553710821E-01
     2.361586307554864        0.8947272337014299E-01
     2.368238663350793        0.8812364606108873E-01
     2.374891019146722        0.8679215543523527E-01
     2.381543374942651        0.8547801587197860E-01
     2.388195730738580        0.8418099428891967E-01
     2.394848086534510        0.8290086012556519E-01
     2.401500442330439        0.8163738532665060E-01
     2.408152798126368        0.8039034432510869E-01
     2.414805153922297        0.7915951402470112E-01
     2.421457509718226        0.7794467378233828E-01
     2.428109865514156        0.7674560539010369E-01
     2.434762221310085        0.7556209305700017E-01
     2.441414577106014        0.7439392339044121E-01
     2.448066932901943        0.7324088537750104E-01
     2.454719288697873        0.7210277036593850E-01
     2.461371644493802        0.7097937204501856E-01
     2.468024000289731        0.6987048642613684E-01
     2.474676356085660        0.6877591182327157E-01
     2.481328711881589        0.6769544883327214E-01
     2.487981067677518        0.6662890031599855E-01
     2.494633423473448        0.6557607137432762E-01
     2.501285779269377        0.6453676933403807E-01
     2.507938135065306        0.6351080372358396E-01
     2.514590490861235        0.6249798625377306E-01
     2.521242846657164        0.6149813079735992E-01
     2.527895202453093        0.6051105336856191E-01
     2.534547558249023        0.5953657210251340E-01
     2.541199914044952        0.5857450723466646E-01
     2.547852269840881        0.5762468108014542E-01
     2.554504625636810        0.5668691801306882E-01
     2.561156981432740        0.5576104444584690E-01
     2.567809337228669        0.5484688880845887E-01
     2.574461693024598        0.5394428152772442E-01
     2.581114048820527        0.5305305500657596E-01
     2.587766404616456        0.5217304360333310E-01
     2.594418760412386        0.5130408361099695E-01
     2.601071116208315        0.5044601323656331E-01
     2.607723472004244        0.4959867258036359E-01
     2.614375827800173        0.4876190361544140E-01
     2.621028183596102        0.4793555016696981E-01
     2.627680539392031        0.4711945789171375E-01
     2.634332895187961        0.4631347425754606E-01
     2.640985250983890        0.4551744852301970E-01
     2.647637606779819        0.4473123171700320E-01
     2.654289962575748        0.4395467661838200E-01
     2.660942318371677        0.4318763773583317E-01
     2.667594674167606        0.4242997128767503E-01
     2.674247029963536        0.4168153518179742E-01
     2.680899385759465        0.4094218899567571E-01
     2.687551741555394        0.4021179395647369E-01
     2.694204097351323        0.3949021292123632E-01
     2.700856453147253        0.3877731035717740E-01
     2.707508808943182        0.3807295232206712E-01
     2.714161164739111        0.3737700644471671E-01
     2.720813520535040        0.3668934190556977E-01
     2.727465876330970        0.3600982941739751E-01
     2.734118232126899        0.3533834120610441E-01
     2.740770587922828        0.3467475099164270E-01
     2.747422943718757        0.3401893396904130E-01
     2.754075299514686        0.3337076678954940E-01
     2.760727655310615        0.3273012754189635E-01
     2.767380011106545        0.3209689573366983E-01
     2.774032366902474        0.3147095227281636E-01
     2.780684722698403        0.3085217944925919E-01
     2.787337078494332        0.3024046091664378E-01
     2.793989434290261        0.2963568167420376E-01
     2.800641790086190        0.2903772804875364E-01
     2.807294145882120        0.2844648767680789E-01
     2.813946501678049        0.2786184948682644E-01
     2.820598857473978        0.2728370368158836E-01
     2.827251213269907        0.2671194172069358E-01
     2.833903569065837        0.2614645630319533E-01
     2.840555924861766        0.2558714135035965E-01
     2.847208280657695        0.2503389198855718E-01
     2.853860636453624        0.2448660453228486E-01
     2.860512992249553        0.2394517646731705E-01
     2.867165348045483        0.2340950643398911E-01
     2.873817703841412        0.2287949421061050E-01
     2.880470059637341        0.2235504069700998E-01
     2.887122415433270        0.2183604789821047E-01
     2.893774771229199        0.2132241890823561E-01
     2.900427127025128        0.2081405789404695E-01
     2.907079482821058        0.2031087007961031E-01
     2.913731838616987        0.1981276173009396E-01
     2.920384194412916        0.1931964013619476E-01
     2.927036550208845        0.1883141359859474E-01
     2.933688906004774        0.1834799141254605E-01
     2.940341261800703        0.1786928385258401E-01
     2.946993617596633        0.1739520215736898E-01
     2.953645973392562        0.1692565851465387E-01
     2.960298329188491        0.1646056604637930E-01
     2.966950684984420        0.1599983879389386E-01
     2.973603040780350        0.1554339170330046E-01
     2.980255396576279        0.1509114061092516E-01
     2.986907752372208        0.1464300222891185E-01
     2.993560108168137        0.1419889413093786E-01
     3.000212463964066        0.1375873473805142E-01
     3.006864819759996        0.1332244330469919E-01
     3.013517175555925        0.1288993991786348E-01
     3.020169531351854        0.1246114582345591E-01
     3.026821887147783        0.1203598590292606E-01
     3.033474242943712        0.1161439639758709E-01
     3.040126598739641        0.1119633823244994E-01
     3.046778954535571        0.1078181224571772E-01
     3.053431310331500        0.1037087186789853E-01
     3.060083666127429        0.9963630669325405E-02
     3.066736021923358        0.9560264322126926E-02
     3.073388377719287        0.9161007821258019E-02
     3.080040733515216        0.8766149288051783E-02
     3.086693089311146        0.8376021664101396E-02
     3.093345445107075        0.7990993373110629E-02
     3.099997800903004        0.7611458748144073E-02
     3.106650156698934        0.7237828767556065E-02
     3.113302512494863        0.6870522440220504E-02
     3.119954868290792        0.6509959030898910E-02
     3.126607224086721        0.6156551211681569E-02
     3.133259579882650        0.5810699155304870E-02
     3.139911935678579        0.5472785541485082E-02
     3.146564291474509        0.5143171420707205E-02
     3.153216647270438        0.4822192865470988E-02
     3.159869003066367        0.4510158332693554E-02
     3.166521358862296        0.4207346659880594E-02
     3.173173714658225        0.3914005619772142E-02
     3.179826070454155        0.3630350962070671E-02
     3.186478426250084        0.3356565875619604E-02
     3.193130782046013        0.3092800809381729E-02
     3.199783137841942        0.2839173595325239E-02
     3.206435493637871        0.2595769820497386E-02
     3.213087849433800        0.2362643398853245E-02
     3.219740205229730        0.2139817295429401E-02
     3.226392561025659        0.1927284355707841E-02
     3.233044916821588        0.1725008190682560E-02
     3.239697272617517        0.1532924061846320E-02
     3.246349628413447        0.1350939697579512E-02
     3.253001984209376        0.1178935948666154E-02
     3.259654340005305        0.1016767146971662E-02
     3.266306695801234        0.8642609494577847E-03
     3.272959051597163        0.7212172900038411E-03
     3.279611407393093        0.5874057307460606E-03
     3.286263763189022        0.4625597622858965E-03
     3.292916118984951        0.3463647468266456E-03
     3.299568474780880        0.2384308198855385E-03
     3.306220830576809        0.1382232605239983E-03
     3.312873186372738        0.4481481103080242E-04
     3.319525542168668         0.000000000000000    
  0  5  1  0  2.000000   #orbital l, n, z, is_polarized, population
 500    0.1668948627550713E-01     8.328053651478056     # npts, delta, cutoff
     0.000000000000000        0.9114675839099601E-01
    0.1668948627550713E-01    0.9151931573089876E-01
    0.3337897255101425E-01    0.9264024012294947E-01