<preamble>

<basis_specs>
===============================================================================
As                   Z=  33    Mass=  74.922        Charge= 0.17977+309
Lmxo=2 Lmxkb= 2    BasisType=split      Semic=T
L=0  Nsemic=0  Cnfigmx=4
          i=1  nzeta=2  polorb=0  (4s)
            splnorm:   0.15000    
               vcte:    40.000    
               rinn:    4.6438    
               qcoe:    0.0000    
               qyuk:    0.0000    
               qwid:   0.10000E-01
                rcs:    5.1598      3.5254    
            lambdas:    1.0000      1.0000    
L=1  Nsemic=0  Cnfigmx=4
          i=1  nzeta=2  polorb=0  (4p)  (to be polarized non-perturbatively)
            splnorm:   0.15000    
               vcte:    40.000    
               rinn:    6.1104    
               qcoe:    0.0000    
               qyuk:    0.0000    
               qwid:   0.10000E-01
                rcs:    6.7894      4.7243    
            lambdas:    1.0000      1.0000    
L=2  Nsemic=1  Cnfigmx=4
          i=1  nzeta=1  polorb=0  (3d)  (semicore shell)
            splnorm:   0.15000    
               vcte:    40.000    
               rinn:    2.4297    
               qcoe:    0.0000    
               qyuk:    0.0000    
               qwid:   0.10000E-01
                rcs:    2.6997    
            lambdas:    1.0000    
          i=2  nzeta=1  polorb=0  (4d)  (non-perturbative polarization shell)
            splnorm:   0.15000    
               vcte:    40.000    
               rinn:    6.1166    
               qcoe:    0.0000    
               qyuk:    0.0000    
               qwid:   0.10000E-01
                rcs:    6.7894    
            lambdas:    1.0000    
-------------------------------------------------------------------------------
L=0  Nkbl=1  erefs: 0.17977+309
L=1  Nkbl=1  erefs: 0.17977+309
L=2  Nkbl=2  erefs: 0.17977+309 0.17977+309
===============================================================================
</basis_specs>

<pseudopotential_header>
 As pb nrl pcec
 ONCVPSP-3.2017-10-31Hamann's oncvpsp                        
 4s 2.00  r= 1.77/4p 3.00  r= 1.70/3d10.00  r= 1.81/                    3d:4s:4p:
</pseudopotential_header>
</preamble>
As                            # Symbol
As                            # Label
   33                         # Atomic number
     15.0000000000                             # Valence charge
     74.9220000000        # Mass 
     219.422922962        # Self energy 
   2   6                      # Lmax for basis, no. of nl orbitals 
   2   6                      # Lmax for projectors, no. of nl KB projectors
# PAOs:__________________________
  0  4  1  0  2.000000   #orbital l, n, z, is_polarized, population
 500    0.1034023716140914E-01     5.159778343543162     # npts, delta, cutoff
     0.000000000000000        0.3039067689107168E-01
    0.1034023716140914E-01    0.3049388912730604E-01
    0.2068047432281829E-01    0.3080569980931123E-01
    0.3102071148422743E-01    0.3132504466375158E-01
    0.4136094864563657E-01    0.3205141408505113E-01
    0.5170118580704572E-01    0.3298409629919645E-01
    0.6204142296845486E-01    0.3412217868471098E-01
    0.7238166012986401E-01    0.3546454959709668E-01
    0.8272189729127315E-01    0.3700990059479239E-01
    0.9306213445268229E-01    0.3875672904444683E-01
    0.1034023716140914        0.4070334108968176E-01
    0.1137426087755006        0.4284785496734594E-01
    0.1240828459369097        0.4518820465410377E-01
    0.1344230830983189        0.4772214382490133E-01
    0.1447633202597280        0.5044725010361431E-01
    0.1551035574211372        0.5336092958504671E-01
    0.1654437945825463        0.5646042160644802E-01
    0.1757840317439554        0.5974280374591247E-01
    0.1861242689053646        0.6320499702433888E-01
    0.1964645060667737        0.6684377128714665E-01
    0.2068047432281829        0.7065575074164729E-01
    0.2171449803895920        0.7463741962585080E-01
    0.2274852175510012        0.7878512798456964E-01
    0.2378254547124103        0.8309509752893633E-01
    0.2481656918738194        0.8756342755589451E-01
    0.2585059290352286        0.9218610090484654E-01
    0.2688461661966377        0.9695898992942481E-01
    0.2791864033580469        0.1018778624633092    
    0.2895266405194560        0.1069383877601106    
    0.2998668776808652        0.1121361423885774    
    0.3102071148422743        0.1174666160657454    
    0.3205473520036835        0.1229252174121302    
    0.3308875891650926        0.1285072796146206    
    0.3412278263265017        0.1342080659843959    
    0.3515680634879109        0.1400227753988948    
    0.3619083006493200        0.1459465476186214    
    0.3722485378107291        0.1519744684713802    
    0.3825887749721383        0.1581015748983174    
    0.3929290121335475        0.1643228598579522    
    0.4032692492949566        0.1706332770861571    
    0.4136094864563657        0.1770277457117787    
    0.4239497236177749        0.1835011547292708    
    0.4342899607791840        0.1900483673313196    
    0.4446301979405932        0.1966642251059632    
    0.4549704351020023        0.2033435521041183    
    0.4653106722634114        0.2100811587847449    
    0.4756509094248206        0.2168718458460452    
    0.4859911465862297        0.2237104079521424    
    0.4963313837476389        0.2305916373655740    
    0.5066716209090480        0.2375103274966798    
    0.5170118580704571        0.2444612763815352    
    0.5273520952318663        0.2514392901005039    
    0.5376923323932754        0.2584391861497203    
    0.5480325695546846        0.2654557967778944    
    0.5583728067160938        0.2724839723007236    
    0.5687130438775029        0.2795185844049469    
    0.5790532810389121        0.2865545294536396    
    0.5893935182003212        0.2935867318037605    
    0.5997337553617303        0.3006101471462143    
    0.6100739925231394        0.3076197658778266    
    0.6204142296845486        0.3146106165135799    
    0.6307544668459577        0.3215777691463426    
    0.6410947040073669        0.3285163389600383    
    0.6514349411687760        0.3354214898008616    
    0.6617751783301852        0.3422884378097142    
    0.6721154154915944        0.3491124551174924    
    0.6824556526530035        0.3558888736033363    
    0.6927958898144126        0.3626130887143139    
    0.7031361269758217        0.3692805633433993    
    0.7134763641372309        0.3758868317610117    
    0.7238166012986400        0.3824275035936987    
    0.7341568384600492        0.3888982678420546    
    0.7444970756214583        0.3952948969283524    
    0.7548373127828675        0.4016132507629334    
    0.7651775499442766        0.4078492808170255    
    0.7755177871056858        0.4139990341883130    
    0.7858580242670949        0.4200586576444368    
    0.7961982614285040        0.4260244016285005    
    0.8065384985899132        0.4318926242097811    
    0.8168787357513223        0.4376597949619761    
    0.8272189729127315        0.4433224987507582    
    0.8375592100741406        0.4488774394118818    
    0.8478994472355498        0.4543214433008210    
    0.8582396843969589        0.4596514626947772    
    0.8685799215583681        0.4648645790279342    
    0.8789201587197771        0.4699580059410656    
    0.8892603958811863        0.4749290921270451    
    0.8996006330425955        0.4797753239543259    
    0.9099408702040046        0.4844943278512964    
    0.9202811073654138        0.4890838724352701    
    0.9306213445268229        0.4935418703710108    
    0.9409615816882321        0.4978663799449388    
    0.9513018188496412        0.5020556063425227    
    0.9616420560110504        0.5061079026179325    
    0.9719822931724594        0.5100217703466281    
    0.9823225303338686        0.5137958599533713    
    0.9926627674952777        0.5174289707099737    
     1.003003004656687        0.5209200503989974    
     1.013343241818096        0.5242681946416697    
     1.023683478979505        0.5274726458903312    
     1.034023716140914        0.5305327920877010    
     1.044363953302323        0.5334481649973963    
     1.054704190463733        0.5362184382122883    
     1.065044427625142        0.5388434248491595    
     1.075384664786551        0.5413230749402588    
     1.085724901947960        0.5436574725342994    
     1.096065139109369        0.5458468325211935    
     1.106405376270778        0.5478914971966754    
     1.116745613432188        0.5497919325848323    
     1.127085850593597        0.5515487245376137    
     1.137426087755006        0.5531625746322469    
     1.147766324916415        0.5546342958885903    
     1.158106562077824        0.5559648083296177    
     1.168446799239233        0.5571551344089232    
     1.178787036400642        0.5582063943301403    
     1.189127273562052        0.5591198012836921    
     1.199467510723461        0.5598966566266518    
     1.209807747884870        0.5605383450315010    
     1.220147985046279        0.5610463296297753    
     1.230488222207688        0.5614221471763162    
     1.240828459369097        0.5616674032595681    
     1.251168696530506        0.5617837675822637    
     1.261508933691915        0.5617729693366853    
     1.271849170853325        0.5616367926975667    
     1.282189408014734        0.5613770724541484    
     1.292529645176143        0.5609956898020048    
     1.302869882337552        0.5604945683140948    
     1.313210119498961        0.5598756701079053    
     1.323550356660370        0.5591409922249637    
     1.333890593821780        0.5582925632367000    
     1.344230830983189        0.5573324400879572    
     1.354571068144598        0.5562627051897255    
     1.364911305306007        0.5550854637669360    
     1.375251542467416        0.5538028414688664    
     1.385591779628825        0.5524169822459947    
     1.395932016790234        0.5509300464916624    
     1.406272253951643        0.5493442094533175    
     1.416612491113053        0.5476616599058995    
     1.426952728274462        0.5458845990830421    
     1.437292965435871        0.5440152398640076    
     1.447633202597280        0.5420558162316076    
     1.457973439758689        0.5400085664459641    
     1.468313676920098        0.5378757218565117    
     1.478653914081508        0.5356595384614593    
     1.488994151242917        0.5333622832404568    
     1.499334388404326        0.5309862345992817    
     1.509674625565735        0.5285336829815261    
     1.520014862727144        0.5260069316114471    
     1.530355099888553        0.5234082973516587    
     1.540695337049962        0.5207401116663150    
     1.551035574211372        0.5180047216445940    
     1.561375811372781        0.5152044910952682    
     1.571716048534190        0.5123418016575808    
     1.582056285695599        0.5094190539349636    
     1.592396522857008        0.5064386686104851    
     1.602736760018417        0.5034030875351305    
     1.613076997179826        0.5003147747632224    
     1.623417234341235        0.4971762175167225    
     1.633757471502645        0.4939899270605755    
     1.644097708664054        0.4907584394709485    
     1.654437945825463        0.4874843162845984    
     1.664778182986872        0.4841701449929512    
     1.675118420148281        0.4808185394218249    
     1.685458657309690        0.4774321398899081    
     1.695798894471100        0.4740136132279567    
     1.706139131632509        0.4705656527185893    
     1.716479368793918        0.4670909798968022    
     1.726819605955327        0.4635923418018471    
     1.737159843116736        0.4600724858749580    
     1.747500080278145        0.4565341847962368    
     1.757840317439554        0.4529803575712986    
     1.768180554600963        0.4494139466876477    
     1.778520791762373        0.4458373894003074    
     1.788861028923782        0.4422523757143333    
     1.799201266085191        0.4386602615659842    
     1.809541503246600        0.4350624512383306    
     1.819881740408009        0.4314603706175421    
     1.830221977569418        0.4278553764267722    
     1.840562214730828        0.4242487595933039    
     1.850902451892237        0.4206417593429501    
     1.861242689053646        0.4170355700895190    
     1.871582926215055        0.4134313412893174    
     1.881923163376464        0.4098301766180199    
     1.892263400537873        0.4062331361783457    
     1.902603637699282        0.4026412379253862    
     1.912943874860692        0.3990554586627699    
     1.923284112022101        0.3954767353245303    
     1.933624349183510        0.3919059663332721    
     1.943964586344919        0.3883440127465057    
     1.954304823506328        0.3847916993388760    
     1.964645060667737        0.3812498157387843    
     1.974985297829146        0.3777191175284973    
     1.985325534990555        0.3742003272915459    
     1.995665772151965        0.3706941356396063    
     2.006006009313374        0.3672012022108436    
     2.016346246474783        0.3637221566415914    
     2.026686483636192        0.3602575995112731    
     2.037026720797601        0.3568081032596851    
     2.047366957959011        0.3533742130820143    
     2.057707195120420        0.3499564477950819    
     2.068047432281829        0.3465553006835278    
     2.078387669443238        0.3431712403195293    
     2.088727906604647        0.3398047113608415    
     2.099068143766056        0.3364561353269934    
     2.109408380927465        0.3331259113518678    
     2.119748618088874        0.3298144169175558    
     2.130088855250284        0.3265220085653072    
     2.140429092411693        0.3232490225876868    
     2.150769329573102        0.3199957757007135    
     2.161109566734511        0.3167625656965796    
     2.171449803895920        0.3135496720781477    
     2.181790041057329        0.3103573566752332    
     2.192130278218738        0.3071858642428427    
     2.202470515380147        0.3040354230425308    
     2.212810752541557        0.3009062454071755    
     2.223150989702966        0.2977985282883390    
     2.233491226864375        0.2947124537895087    
     2.243831464025784        0.2916481896820656    
     2.254171701187193        0.2886058899067811    
     2.264511938348603        0.2855856950618463    
     2.274852175510012        0.2825877328739564    
     2.285192412671420        0.2796121186581950    
     2.295532649832830        0.2766589557628814    
     2.305872886994239        0.2737283360006393    
     2.316213124155648        0.2708203400692056    
     2.326553361317057        0.2679350379564823    
     2.336893598478466        0.2650724893354067    
     2.347233835639876        0.2622327439472827    
     2.357574072801285        0.2594158419716542    
     2.367914309962694        0.2566218143871062    
     2.378254547124103        0.2538506833200613    
     2.388594784285512        0.2511024623826396    
     2.398935021446921        0.2483771570015375    
     2.409275258608330        0.2456747647355250    
     2.419615495769739        0.2429952755837592    
     2.429955732931149        0.2403386722848826    
     2.440295970092558        0.2377049306063719    
     2.450636207253967        0.2350940196251862    
     2.460976444415376        0.2325059019996009    
     2.471316681576785        0.2299405342328509    
     2.481656918738194        0.2273978669280759    
     2.491997155899603        0.2248778450354814    
     2.502337393061013        0.2223804080921272    
     2.512677630222422        0.2199054904531932    
     2.523017867383831        0.2174530215166620    
     2.533358104545240        0.2150229259410869    
     2.543698341706649        0.2126151238551863    
     2.554038578868059        0.2102295310619504    
     2.564378816029468        0.2078660592360861    
     2.574719053190877        0.2055246161139187    
     2.585059290352286        0.2032051056784793    
     2.595399527513695        0.2009074283381378    
     2.605739764675104        0.1986314810981895    
     2.616080001836513        0.1963771577293424    
     2.626420238997922        0.1941443489347571    
     2.636760476159332        0.1919329424920596    
     2.647100713320741        0.1897428234143140    
     2.657440950482150        0.1875738740793660    
     2.667781187643559        0.1854259744148326    
     2.678121424804968        0.1832990019992137    
     2.688461661966377        0.1811928321863061    
     2.698801899127786        0.1791073382492662    
     2.709142136289195        0.1770423915051635    
     2.719482373450605        0.1749978615008170    
     2.729822610612014        0.1729736159743440    
     2.740162847773423        0.1709695210141621    
     2.750503084934832        0.1689854410980570    
     2.760843322096241        0.1670212394710513    
     2.771183559257651        0.1650767782495521    
     2.781523796419060        0.1631519180877679    
     2.791864033580469        0.1612465185064272    
     2.802204270741878        0.1593604380370170    
     2.812544507903287        0.1574935342919640    
     2.822884745064696        0.1556456640336632    
     2.833224982226105        0.1538166832361949    
     2.843565219387514        0.1520064471669769    
     2.853905456548924        0.1502148104638794    
     2.864245693710333        0.1484416272091863    
     2.874585930871742        0.1466867509982826    
     2.884926168033151        0.1449500350053452    
     2.895266405194560        0.1432313320472522    
     2.905606642355969        0.1415304946450600    
     2.915946879517378        0.1398473750830981    
     2.926287116678787        0.1381818254658092    
     2.936627353840197        0.1365336977723984    
     2.946967591001606        0.1349028439093621    
     2.957307828163015        0.1332891157609581    
     2.967648065324424        0.1316923652376818    
     2.977988302485833        0.1301124443228137    
     2.988328539647243        0.1285492051170930    
     2.998668776808652        0.1270024998815868    
     3.009009013970061        0.1254721810788050    
     3.019349251131470        0.1239581014121191    
     3.029689488292879        0.1224601138635416    
     3.040029725454288        0.1209780717299139    
     3.050369962615697        0.1195118286575618    
     3.060710199777106        0.1180612386754590    
     3.071050436938516        0.1166261562269536    
     3.081390674099925        0.1152064362001011    
     3.091730911261334        0.1138019339566549    
     3.102071148422743        0.1124125053597513    
     3.112411385584152        0.1110380068003347    
     3.122751622745561        0.1096782952223656    
     3.133091859906970        0.1083332281468484    
     3.143432097068380        0.1070026636947217    
     3.153772334229789        0.1056864606086425    
     3.164112571391198        0.1043844782737166    
     3.174452808552607        0.1030965767371943    
     3.184793045714016        0.1018226167271690    
     3.195133282875425        0.1005624596703194    
     3.205473520036835        0.9931596770872267E-01
     3.215813757198243        0.9808300371577187E-01
     3.226153994359653        0.9686343131121918E-01
     3.236494231521062        0.9565711487539237E-01
     3.246834468682471        0.9446391956259841E-01
     3.257174705843880        0.9328371131374585E-01
     3.267514943005289        0.9211635686821354E-01
     3.277855180166699        0.9096172377499280E-01
     3.288195417328108        0.8981968040312822E-01
     3.298535654489517        0.8869009595147741E-01
     3.308875891650926        0.8757284045781671E-01
     3.319216128812335        0.8646778480731977E-01
     3.329556365973744        0.8537480074042191E-01
     3.339896603135153        0.8429376086009752E-01
     3.350236840296562        0.8322453863857222E-01
     3.360577077457972        0.8216700842348779E-01
     3.370917314619381        0.8112104544354008E-01
     3.381257551780790        0.8008652581360529E-01
     3.391597788942199        0.7906332653938049E-01
     3.401938026103608        0.7805132552155009E-01
     3.412278263265017        0.7705040155949668E-01
     3.422618500426426        0.7606043435457140E-01
     3.432958737587835        0.7508130451294588E-01
     3.443298974749245        0.7411289354805392E-01
     3.453639211910654        0.7315508388264337E-01
     3.463979449072063        0.7220775885044642E-01
     3.474319686233472        0.7127080269749157E-01
     3.484659923394881        0.7034410058306351E-01
     3.495000160556291        0.6942753858032566E-01
     3.505340397717700        0.6852100367661963E-01
     3.515680634879109        0.6762438377345381E-01
     3.526020872040518        0.6673756768619196E-01
     3.536361109201927        0.6586044514345410E-01
     3.546701346363336        0.6499290678623973E-01
     3.557041583524745        0.6413484416678596E-01
     3.567381820686154        0.6328614974717130E-01
     3.577722057847564        0.6244671689767103E-01
     3.588062295008973        0.6161643989487996E-01
     3.598402532170382        0.6079521391960799E-01
     3.608742769331791        0.5998293505455851E-01
     3.619083006493200        0.5917950028179930E-01
     3.629423243654609        0.5838480748003357E-01
     3.639763480816018        0.5759875542168077E-01
     3.650103717977428        0.5682124376977266E-01
     3.660443955138837        0.5605217307467555E-01
     3.670784192300246        0.5529144477064415E-01
     3.681124429461655        0.5453896117221440E-01
     3.691464666623064        0.5379462547044337E-01
     3.701804903784473        0.5305834172900249E-01
     3.712145140945883        0.5233001488012935E-01
     3.722485378107292        0.5160955072044744E-01
     3.732825615268701        0.5089685590665736E-01
     3.743165852430110        0.5019183795110537E-01
     3.753506089591519        0.4949440521723719E-01
     3.763846326752928        0.4880446691494167E-01
     3.774186563914337        0.4812193309578764E-01
     3.784526801075747        0.4744671464816235E-01
     3.794867038237156        0.4677872329231458E-01
     3.805207275398565        0.4611787157530787E-01
     3.815547512559974        0.4546407286588838E-01
     3.825887749721383        0.4481724134927195E-01
     3.836227986882792        0.4417729202185473E-01
     3.846568224044201        0.4354414068585175E-01
     3.856908461205610        0.4291770394386810E-01
     3.867248698367020        0.4229789919340481E-01
     3.877588935528429        0.4168464462130569E-01
     3.887929172689838        0.4107785919814678E-01
     3.898269409851247        0.4047746267257378E-01
     3.908609647012656        0.3988337556558933E-01
     3.918949884174066        0.3929551916479416E-01
     3.929290121335475        0.3871381551858630E-01
     3.939630358496883        0.3813818743031914E-01
     3.949970595658293        0.3756855845242388E-01
     3.960310832819702        0.3700485288049793E-01
     3.970651069981111        0.3644699574736167E-01
     3.980991307142520        0.3589491281708816E-01
     3.991331544303929        0.3534853057900579E-01
     4.001671781465339        0.3480777624167850E-01
     4.012012018626748        0.3427257772686618E-01
     4.022352255788157        0.3374286366346527E-01
     4.032692492949566        0.3321856338143413E-01
     4.043032730110975        0.3269960690570478E-01
     4.053372967272384        0.3218592495008216E-01
     4.063713204433793        0.3167744891113479E-01
     4.074053441595202        0.3117411086207766E-01
     4.084393678756611        0.3067584354664783E-01
     4.094733915918021        0.3018258037297758E-01
     4.105074153079430        0.2969425540746589E-01
     4.115414390240839        0.2921080336864774E-01
     4.125754627402248        0.2873215962106664E-01
     4.136094864563657        0.2825826016914732E-01
     4.146435101725067        0.2778904165107495E-01
     4.156775338886476        0.2732444133268007E-01
     4.167115576047885        0.2686439710132935E-01
     4.177455813209294        0.2640884745982649E-01
     4.187796050370703        0.2595773152032035E-01
     4.198136287532113        0.2551098899822727E-01
     4.208476524693522        0.2506856020616424E-01
     4.218816761854931        0.2463038604789545E-01
     4.229156999016340        0.2419640801229432E-01
     4.239497236177749        0.2376656816731781E-01
     4.249837473339158        0.2334080915400229E-01
     4.260177710500567        0.2291907418047464E-01
     4.270517947661976        0.2250130701598126E-01
     4.280858184823385        0.2208745198493827E-01
     4.291198421984794        0.2167745396099838E-01
     4.301538659146203        0.2127125836114405E-01
     4.311878896307613        0.2086881113979919E-01
     4.322219133469022        0.2047005878296459E-01
     4.332559370630431        0.2007494830237678E-01
     4.342899607791840        0.1968342722968761E-01
     4.353239844953249        0.1929544361067470E-01
     4.363580082114659        0.1891094599947337E-01
     4.373920319276068        0.1852988345283420E-01
     4.384260556437477        0.1815220552440913E-01
     4.394600793598886        0.1777786225905993E-01
     4.404941030760295        0.1740680418720053E-01
     4.415281267921705        0.1703898231916305E-01
     4.425621505083114        0.1667434813959319E-01
     4.435961742244523        0.1631285360187532E-01
     4.446301979405932        0.1595445112258174E-01
     4.456642216567340        0.1559909357595943E-01
     4.466982453728750        0.1524673428844132E-01
     4.477322690890159        0.1489732703318900E-01
     4.487662928051568        0.1455082602466678E-01
     4.498003165212977        0.1420718591324167E-01
     4.508343402374386        0.1386636177982196E-01
     4.518683639535795        0.1352830913052167E-01
     4.529023876697205        0.1319298389135821E-01
     4.539364113858614        0.1286034240298233E-01
     4.549704351020023        0.1253034141543521E-01
     4.560044588181432        0.1220293808294341E-01
     4.570384825342841        0.1187808995874343E-01
     4.580725062504251        0.1155575498993823E-01
     4.591065299665660        0.1123589151238649E-01
     4.601405536827069        0.1091845824562257E-01
     4.611745773988478        0.1060341428780991E-01
     4.622086011149887        0.1029071911072885E-01
     4.632426248311297        0.9980332554794505E-02
     4.642766485472706        0.9672214824107810E-02
     4.653106722634115        0.9366326481540220E-02
     4.663446959795523        0.9062628443845680E-02
     4.673787196956932        0.8761081976882204E-02
     4.684127434118342        0.8461648704136186E-02
     4.694467671279751        0.8164290948720681E-02
     4.704807908441160        0.7868974261423774E-02
     4.715148145602569        0.7575675257839360E-02
     4.725488382763978        0.7284395055001149E-02
     4.735828619925388        0.6995174482794473E-02
     4.746168857086797        0.6708106516104475E-02
     4.756509094248206        0.6423343328529546E-02
     4.766849331409615        0.6141097557665215E-02
     4.777189568571024        0.5861638697751605E-02
     4.787529805732434        0.5585286016343283E-02
     4.797870042893843        0.5312399365892340E-02
     4.808210280055252        0.5043369017081212E-02
     4.818550517216661        0.4778605347041703E-02
     4.828890754378070        0.4518528949862514E-02
     4.839230991539479        0.4263561524788308E-02
     4.849571228700889        0.4014117740374711E-02
     4.859911465862297        0.3770598162315745E-02
     4.870251703023706        0.3533383258245448E-02
     4.880591940185115        0.3302828444963402E-02
     4.890932177346524        0.3079260114523894E-02
     4.901272414507934        0.2862972559598045E-02
     4.911612651669343        0.2654225711185111E-02
     4.921952888830752        0.2453243600118167E-02
     4.932293125992161        0.2260213455741746E-02
     4.942633363153570        0.2075285359204186E-02
     4.952973600314980        0.1898572374018467E-02
     4.963313837476389        0.1730151082231119E-02
     4.973654074637798        0.1570062460238505E-02
     4.983994311799207        0.1418313033684212E-02
     4.994334548960616        0.1274876255675343E-02
     5.004674786122026        0.1139694056521957E-02
     5.015015023283435        0.1012678515994315E-02
     5.025355260444844        0.8937136102091008E-03
     5.035695497606253        0.7826569838772502E-03
     5.046035734767662        0.6793416932891236E-03
     5.056375971929072        0.5835778533128218E-03
     5.066716209090480        0.4951540974434367E-03
     5.077056446251889        0.4138387124181801E-03
     5.087396683413298        0.3393802136836676E-03
     5.097736920574707        0.2715069272837643E-03
     5.108077157736117        0.2099246872750924E-03
     5.118417394897526        0.1543106042048142E-03
     5.128757632058935        0.1042974808072423E-03
     5.139097869220344        0.5943166337711192E-04
     5.149438106381753        0.1901786823879970E-04
     5.159778343543162         0.000000000000000    
  0  4  2  0  0.000000   #orbital l, n, z, is_polarized, population
 500    0.7064953714090072E-02     3.525411903330946     # npts, delta, cutoff
     0.000000000000000       -0.3514160063089333    
    0.7064953714090072E-02   -0.3513250042656675    
    0.1412990742818014E-01   -0.3510477613703743    
    0.2119486114227022E-01   -0.3505858280084387    
    0.2825981485636029E-01   -0.3499394137543701    
    0.3532476857045036E-01   -0.3491088111266594    
    0.4238972228454044E-01   -0.3480943956468233    
    0.4945467599863051E-01   -0.3468966255312954    
    0.5651962971272058E-01   -0.3455160412699411    
    0.6358458342681066E-01   -0.3439532651204197    