<preamble>

<basis_specs>
===============================================================================
Ba                   Z=  56    Mass=  137.33        Charge= 0.17977+309
Lmxo=1 Lmxkb= 2    BasisType=split      Semic=T
L=0  Nsemic=1  Cnfigmx=6
          i=1  nzeta=1  polorb=0  (5s)  (semicore shell)
            splnorm:   0.15000    
               vcte:    40.000    
               rinn:    3.7474    
               qcoe:    0.0000    
               qyuk:    0.0000    
               qwid:   0.10000E-01
                rcs:    4.1638    
            lambdas:    1.0000    
          i=2  nzeta=2  polorb=0  (6s)  (to be polarized non-perturbatively)
            splnorm:   0.15000    
               vcte:    40.000    
               rinn:    9.0112    
               qcoe:    0.0000    
               qyuk:    0.0000    
               qwid:   0.10000E-01
                rcs:    10.012      7.5724    
            lambdas:    1.0000      1.0000    
L=1  Nsemic=1  Cnfigmx=6
          i=1  nzeta=1  polorb=0  (5p)  (semicore shell)
            splnorm:   0.15000    
               vcte:    40.000    
               rinn:    4.4391    
               qcoe:    0.0000    
               qyuk:    0.0000    
               qwid:   0.10000E-01
                rcs:    4.9274    
            lambdas:    1.0000    
          i=2  nzeta=1  polorb=0  (6p)  (non-perturbative polarization shell)
            splnorm:   0.15000    
               vcte:    40.000    
               rinn:    9.0203    
               qcoe:    0.0000    
               qyuk:    0.0000    
               qwid:   0.10000E-01
                rcs:    10.012    
            lambdas:    1.0000    
-------------------------------------------------------------------------------
L=0  Nkbl=2  erefs: 0.17977+309 0.17977+309
L=1  Nkbl=2  erefs: 0.17977+309 0.17977+309
L=2  Nkbl=1  erefs: 0.17977+309
===============================================================================
</basis_specs>

<pseudopotential_header>
 Ba pb nrl pcec
 ONCVPSP-4.2023-03-20Hamann's oncvpsp                        
 5s 2.00  r= 1.96/5p 6.00  r= 1.80/5d 0.00  r= 1.90/4f 0.00  r= 2.11/   5s:5p:6s:
</pseudopotential_header>
</preamble>
Ba                            # Symbol
Ba                            # Label
   56                         # Atomic number
     10.0000000000                             # Valence charge
     137.330000000        # Mass 
     89.0100936367        # Self energy 
   1   5                      # Lmax for basis, no. of nl orbitals 
   2   6                      # Lmax for projectors, no. of nl KB projectors
# PAOs:__________________________
  0  5  1  0  2.000000   #orbital l, n, z, is_polarized, population
 500    0.8344313019208023E-02     4.163812196584804     # npts, delta, cutoff
     0.000000000000000        0.3207785485944327E-01
    0.8344313019208023E-02    0.3216510722039119E-01
    0.1668862603841605E-01    0.3242840959855313E-01
    0.2503293905762407E-01    0.3286706066184381E-01
    0.3337725207683209E-01    0.3348078047333446E-01
    0.4172156509604012E-01    0.3426917773147180E-01
    0.5006587811524814E-01    0.3523175007975646E-01
    0.5841019113445616E-01    0.3636788462495532E-01
    0.6675450415366418E-01    0.3767685858231740E-01
    0.7509881717287220E-01    0.3915784003719974E-01
    0.8344313019208023E-01    0.4080988881941688E-01
    0.9178744321128826E-01    0.4263195748769139E-01
    0.1001317562304963        0.4462289242171182E-01
    0.1084760692497043        0.4678143501919813E-01
    0.1168203822689123        0.4910622299522960E-01
    0.1251646952881204        0.5159579178090898E-01
    0.1335090083073284        0.5424857601826601E-01
    0.1418533213265364        0.5706291114811938E-01
    0.1501976343457444        0.6003703508746337E-01
    0.1585419473649524        0.6316908999276689E-01
    0.1668862603841605        0.6645712410544170E-01
    0.1752305734033685        0.6989909367559069E-01
    0.1835748864225765        0.7349286496002615E-01
    0.1919191994417845        0.7723621629044315E-01
    0.2002635124609926        0.8112684020753945E-01
    0.2086078254802006        0.8516234565679807E-01
    0.2169521384994086        0.8934026024158800E-01
    0.2252964515186166        0.9365803252919878E-01
    0.2336407645378246        0.9811303440539373E-01
    0.2419850775570327        0.1027025634730608    
    0.2503293905762407        0.1074238454905415    
    0.2586737035954487        0.1122740368452460    
    0.2670180166146567        0.1172502270581949    
    0.2753623296338648        0.1223494413151867    
    0.2837066426530728        0.1275686430203483    
    0.2920509556722808        0.1329047363679229    
    0.3003952686914888        0.1383545689282274    
    0.3087395817106969        0.1439149342438320    
    0.3170838947299049        0.1495825744321327    
    0.3254282077491129        0.1553541827906149    
    0.3337725207683209        0.1612264064012560    
    0.3421168337875289        0.1671958487306600    
    0.3504611468067370        0.1732590722226873    
    0.3588054598259450        0.1794126008805003    
    0.3671497728451530        0.1856529228351385    
    0.3754940858643611        0.1919764928978985    
    0.3838383988835691        0.1983797350940069    
    0.3921827119027771        0.2048590451752391    
    0.4005270249219851        0.2114107931093586    
    0.4088713379411931        0.2180313255444211    
    0.4172156509604011        0.2247169682462161    
    0.4255599639796092        0.2314640285072852    
    0.4339042769988172        0.2382687975261779    
    0.4422485900180252        0.2451275527557899    
    0.4505929030372333        0.2520365602198208    
    0.4589372160564413        0.2589920767965666    
    0.4672815290756493        0.2659903524694859    
    0.4756258420948573        0.2730276325440913    
    0.4839701551140653        0.2801001598309353    
    0.4923144681332733        0.2872041767946270    
    0.5006587811524814        0.2943359276689285    
    0.5090030941716894        0.3014916605381545    
    0.5173474071908974        0.3086676293852545    
    0.5256917202101055        0.3158600961070269    
    0.5340360332293135        0.3230653324970763    
    0.5423803462485215        0.3302796221972226    
    0.5507246592677295        0.3374992626181287    
    0.5590689722869375        0.3447205668300386    
    0.5674132853061455        0.3519398654245531    
    0.5757575983253536        0.3591535083484361    
    0.5841019113445616        0.3663578667104868    
    0.5924462243637696        0.3735493345625347    
    0.6007905373829776        0.3807243306556390    
    0.6091348504021857        0.3878793001725743    
    0.6174791634213938        0.3950107164376626    
    0.6258234764406018        0.4021150826050107    
    0.6341677894598098        0.4091889333261601    
    0.6425121024790178        0.4162288363981130    
    0.6508564154982258        0.4232313943926453    
    0.6592007285174338        0.4301932462677463    
    0.6675450415366418        0.4371110689619410    
    0.6758893545558499        0.4439815789721596    
    0.6842336675750579        0.4508015339157265    
    0.6925779805942659        0.4575677340769403    
    0.7009222936134739        0.4642770239385651    
    0.7092666066326819        0.4709262936984850    
    0.7176109196518899        0.4775124807715909    
    0.7259552326710980        0.4840325712768724    
    0.7342995456903061        0.4904836015095326    
    0.7426438587095141        0.4968626593977948    
    0.7509881717287221        0.5031668859439374    
    0.7593324847479301        0.5093934766489523    
    0.7676767977671382        0.5155396829200362    
    0.7760211107863462        0.5216028134600271    
    0.7843654238055542        0.5275802356377182    
    0.7927097368247622        0.5334693768378413    
    0.8010540498439702        0.5392677257893856    
    0.8093983628631782        0.5449728338707660    
    0.8177426758823862        0.5505823163902147    
    0.8260869889015943        0.5560938538396811    
    0.8344313019208023        0.5615051931203457    
    0.8427756149400103        0.5668141487378086    
    0.8511199279592183        0.5720186039648509    
    0.8594642409784263        0.5771165119696173    
    0.8678085539976343        0.5821058969069409    
    0.8761528670168425        0.5869848549705081    
    0.8844971800360505        0.5917515554034415    
    0.8928414930552585        0.5964042414648844    
    0.9011858060744665        0.6009412313500849    
    0.9095301190936745        0.6053609190614786    
    0.9178744321128826        0.6096617752282384    
    0.9262187451320906        0.6138423478717903    
    0.9345630581512986        0.6179012631147558    
    0.9429073711705066        0.6218372258308702    
    0.9512516841897146        0.6256490202334190    
    0.9595959972089226        0.6293355103998159    
    0.9679403102281307        0.6328956407299955    
    0.9762846232473387        0.6363284363364178    
    0.9846289362665467        0.6396330033635129    
    0.9929732492857547        0.6428085292345640    
     1.001317562304963        0.6458542828241246    
     1.009661875324171        0.6487696145541864    
     1.018006188343379        0.6515539564125096    
     1.026350501362587        0.6542068218916116    
     1.034694814381795        0.6567278058471517    
     1.043039127401003        0.6591165842746309    
     1.051383440420211        0.6613729140033837    
     1.059727753439419        0.6634966323072734    
     1.068072066458627        0.6654876564314748    
     1.076416379477835        0.6673459830350881    
     1.084760692497043        0.6690716875494997    
     1.093105005516251        0.6706649234526201    
     1.101449318535459        0.6721259214593824    
     1.109793631554667        0.6734549886291249    
     1.118137944573875        0.6746525073906662    
     1.126482257593083        0.6757189344862096    
     1.134826570612291        0.6766547998353190    
     1.143170883631499        0.6774607053205827    
     1.151515196650707        0.6781373234967731    
     1.159859509669915        0.6786853962253911    
     1.168203822689123        0.6791057332370647    
     1.176548135708331        0.6793992106240507    
     1.184892448727539        0.6795667692656611    
     1.193236761746747        0.6796094131895081    
     1.201581074765955        0.6795282078715734    
     1.209925387785163        0.6793242784785408    
     1.218269700804371        0.6789988080557222    
     1.226614013823579        0.6785530356643226    
     1.234958326842788        0.6779882544717923    
     1.243302639861996        0.6773058097993284    
     1.251646952881204        0.6765070971303850    
     1.259991265900412        0.6755935600847609    
     1.268335578919620        0.6745666883621918    
     1.276679891938828        0.6734280156601773    
     1.285024204958036        0.6721791175703488    
     1.293368517977244        0.6708216094580012    
     1.301712830996452        0.6693571443293624    
     1.310057144015660        0.6677874106911859    
     1.318401457034868        0.6661141304074433    
     1.326745770054076        0.6643390565575015    
     1.335090083073284        0.6624639713006926    
     1.343434396092492        0.6604906837517261    
     1.351778709111700        0.6584210286708144    
     1.360123022130908        0.6562568628174724    
     1.368467335150116        0.6540000627357786    
     1.376811648169324        0.6516525244869655    
     1.385155961188532        0.6492161607813203    
     1.393500274207740        0.6466928990102110    
     1.401844587226948        0.6440846793183368    
     1.410188900246156        0.6413934527202181    
     1.418533213265364        0.6386211792640685    
     1.426877526284572        0.6357698262467897    
     1.435221839303780        0.6328413664828730    
     1.443566152322988        0.6298377766302991    
     1.451910465342196        0.6267610355762194    
     1.460254778361404        0.6236131228846458    
     1.468599091380612        0.6203960173086015    
     1.476943404399820        0.6171116953686647    
     1.485287717419028        0.6137621299995910    
     1.493632030438236        0.6103492892665925    
     1.501976343457444        0.6068751351524462    
     1.510320656476652        0.6033416224163756    
     1.518664969495860        0.5997506975255068    
     1.527009282515068        0.5961042976592683    
     1.535353595534276        0.5924043497868686    
     1.543697908553484        0.5886527698178657    
     1.552042221572692        0.5848514618254855    
     1.560386534591900        0.5810023173419464    
     1.568730847611108        0.5771072147251054    
     1.577075160630316        0.5731680185952510    
     1.585419473649524        0.5691865793406945    
     1.593763786668732        0.5651647326906556    
     1.602108099687940        0.5611042993536548    
     1.610452412707148        0.5570070847193179    
     1.618796725726356        0.5528748786214870    
     1.627141038745564        0.5487094551603247    
     1.635485351764772        0.5445125725806371    
     1.643829664783981        0.5402859732038650    
     1.652173977803189        0.5360313834107971    
     1.660518290822397        0.5317505136720209    
     1.668862603841605        0.5274450586229357    
     1.677206916860813        0.5231166971800817    
     1.685551229880021        0.5187670926954607    
     1.693895542899229        0.5143978931454483    
     1.702239855918437        0.5100107313507874    
     1.710584168937645        0.5056072252241527    
     1.718928481956853        0.5011889780417297    
     1.727272794976061        0.4967575787352191    
     1.735617107995269        0.4923146022008292    
     1.743961421014477        0.4878616096215044    
     1.752305734033685        0.4834001487989626    
     1.760650047052893        0.4789317544922072    
     1.768994360072101        0.4744579487588920    
     1.777338673091309        0.4699802412967180    
     1.785682986110517        0.4655001297801378    
     1.794027299129725        0.4610191001908892    
     1.802371612148933        0.4565386271394430    
     1.810715925168141        0.4520601741750988    
     1.819060238187349        0.4475851940878266    
     1.827404551206557        0.4431151291630468    
     1.835748864225765        0.4386514114482220    
     1.844093177244973        0.4341954629822096    
     1.852437490264181        0.4297486960162137    
     1.860781803283389        0.4253125131790479    
     1.869126116302597        0.4208883076386928    
     1.877470429321805        0.4164774632258086    
     1.885814742341013        0.4120813545258986    
     1.894159055360221        0.4077013469414446    
     1.902503368379429        0.4033387967205114    
     1.910847681398637        0.3989950509523290    
     1.919191994417845        0.3946714475283347    
     1.927536307437053        0.3903693151000888    
     1.935880620456261        0.3860899743665063    
     1.944224933475469        0.3818347296726170    
     1.952569246494677        0.3776048743236713    
     1.960913559513885        0.3734017675848487    
     1.969257872533093        0.3692264964184460    
     1.977602185552301        0.3650795461499536    
     1.985946498571509        0.3609612512955263    
     1.994290811590717        0.3568719914245918    
     2.002635124609926        0.3528121102604626    
     2.010979437629134        0.3487819242225180    
     2.019323750648342        0.3447817281868220    
     2.027668063667550        0.3408117949989596    
     2.036012376686758        0.3368723760283387    
     2.044356689705966        0.3329637020079800    
     2.052701002725174        0.3290859836948609    
     2.061045315744382        0.3252394125474211    
     2.069389628763590        0.3214241613853786    
     2.077733941782798        0.3176403850296395    
     2.086078254802006        0.3138882209255323    
     2.094422567821214        0.3101677897491320    
     2.102766880840422        0.3064791959970989    
     2.111111193859630        0.3028225285604074    
     2.119455506878838        0.2991978612823530    
     2.127799819898046        0.2956052535011601    
     2.136144132917254        0.2920447505775444    
     2.144488445936462        0.2885163844076216    
     2.152832758955670        0.2850201739214759    
     2.161177071974878        0.2815561255677393    
     2.169521384994086        0.2781242337844798    
     2.177865698013294        0.2747244814567652    
     2.186210011032502        0.2713568403612285    
     2.194554324051710        0.2680212715979178    
     2.202898637070918        0.2647177260097659    
     2.211242950090126        0.2614461445899567    
     2.219587263109334        0.2582064588775381    
     2.227931576128542        0.2549985913415368    
     2.236275889147750        0.2518224557538443    
     2.244620202166958        0.2486779575512110    
     2.252964515186166        0.2455649941865882    
     2.261308828205374        0.2424834554700911    
     2.269653141224582        0.2394332238998513    
     2.277997454243790        0.2364141749830298    
     2.286341767262998        0.2334261775472291    
     2.294686080282206        0.2304690940425559    
     2.303030393301414        0.2275427808345726    
     2.311374706320622        0.2246470884883937    
     2.319719019339830        0.2217818620441486    
     2.328063332359038        0.2189469412840221    
     2.336407645378246        0.2161421609911074    
     2.344751958397454        0.2133673512002868    
     2.353096271416662        0.2106223374413623    
     2.361440584435870        0.2079069409746310    
     2.369784897455078        0.2052209790190854    
     2.378129210474286        0.2025642649734594    
     2.386473523493494        0.1999366086303253    
     2.394817836512702        0.1973378163833900    
     2.403162149531910        0.1947676914281865    
     2.411506462551119        0.1922260339563518    
     2.419850775570327        0.1897126413436481    
     2.428195088589535        0.1872273083318981    
     2.436539401608743        0.1847698272050016    
     2.444883714627951        0.1823399879591894    
     2.453228027647159        0.1799375784676699    
     2.461572340666367        0.1775623846398189    
     2.469916653685575        0.1752141905750614    
     2.478260966704783        0.1728927787115881    
     2.486605279723991        0.1705979299700512    
     2.494949592743199        0.1683294238923686    
     2.503293905762407        0.1660870387757590    
     2.511638218781615        0.1638705518021567    
     2.519982531800823        0.1616797391631327    
     2.528326844820031        0.1595143761804234    
     2.536671157839239        0.1573742374221942    
     2.545015470858447        0.1552590968151641    
     2.553359783877655        0.1531687277526936    
     2.561704096896863        0.1511029031989506    
     2.570048409916071        0.1490613957892572    
     2.578392722935279        0.1470439779267222    
     2.586737035954487        0.1450504218752647    
     2.595081348973695        0.1430804998491296    
     2.603425661992903        0.1411339840989819    
     2.611769975012111        0.1392106469946743    
     2.620114288031319        0.1373102611047948    
     2.628458601050527        0.1354325992730712    
     2.636802914069735        0.1335774346917152    
     2.645147227088943        0.1317445409717934    
     2.653491540108151        0.1299336922107238    
     2.661835853127359        0.1281446630569633    
     2.670180166146567        0.1263772287719593    
     2.678524479165775        0.1246311652894538    
     2.686868792184983        0.1229062492722119    
     2.695213105204191        0.1212022581662467    
     2.703557418223399        0.1195189702526108    
     2.711901731242607        0.1178561646968275    
     2.720246044261815        0.1162136215960211    
     2.728590357281024        0.1145911220238216    
     2.736934670300232        0.1129884480731038    
     2.745278983319440        0.1114053828966227    
     2.753623296338648        0.1098417107456108    
     2.761967609357856        0.1082972170063916    
     2.770311922377064        0.1067716882350757    
     2.778656235396272        0.1052649121903878    
     2.787000548415480        0.1037766778646821    
     2.795344861434688        0.1023067755132073    
     2.803689174453896        0.1008549966816670    
     2.812033487473104        0.9942113423213343E-01
     2.820377800492312        0.9800498236735644E-01
     2.828722113511520        0.9660633665352633E-01
     2.837066426530728        0.9522499404153346E-01
     2.845410739549936        0.9386075288677292E-01
     2.853755052569144        0.9251341296754238E-01
     2.862099365588352        0.9118277550207386E-01
     2.870443678607560        0.8986864316424556E-01
     2.878787991626768        0.8857082009801742E-01
     2.887132304645976        0.8728911193063578E-01
     2.895476617665184        0.8602332578463837E-01
     2.903820930684392        0.8477327028870438E-01
     2.912165243703600        0.8353875558738971E-01
     2.920509556722808        0.8231959334979050E-01
     2.928853869742016        0.8111559677716450E-01
     2.937198182761224        0.7992658060954297E-01
     2.945542495780432        0.7875236113137904E-01
     2.953886808799640        0.7759275617626302E-01
     2.962231121818848        0.7644758513073810E-01
     2.970575434838056        0.7531666893725024E-01
     2.978919747857264        0.7419983009626462E-01
     2.987264060876472        0.7309689266757931E-01
     2.995608373895680        0.7200768227086622E-01
     3.003952686914888        0.7093202608547576E-01
     3.012296999934096        0.6986975284952998E-01
     3.020641312953305        0.6882069285833320E-01
     3.028985625972513        0.6778467796212954E-01
     3.037329938991721        0.6676154156323563E-01
     3.045674252010929        0.6575111861257654E-01
     3.054018565030137        0.6475324560564848E-01
     3.062362878049345        0.6376776057793834E-01
     3.070707191068553        0.6279450309982423E-01
     3.079051504087761        0.6183331427097966E-01
     3.087395817106969        0.6088403671431037E-01
     3.095740130126177        0.5994651456944530E-01
     3.104084443145385        0.5902059348580393E-01
     3.112428756164593        0.5810612061526524E-01
     3.120773069183801        0.5720294460445985E-01
     3.129117382203009        0.5631091558670676E-01
     3.137461695222217        0.5542988517362072E-01
     3.145806008241425        0.5455970644640561E-01
     3.154150321260633        0.5370023394685285E-01
     3.162494634279841        0.5285132366807073E-01
     3.170838947299049        0.5201283304496401E-01
     3.179183260318257        0.5118462094447800E-01
     3.187527573337465        0.5036654765562947E-01
     3.195871886356673        0.4955847487933720E-01
     3.204216199375881        0.4876026571807688E-01
     3.212560512395089        0.4797178466537338E-01
     3.220904825414297        0.4719289759514415E-01
     3.229249138433505        0.4642347175091499E-01
     3.237593451452713        0.4566337573491983E-01
     3.245937764471921        0.4491247949709711E-01
     3.254282077491129        0.4417065432400121E-01
     3.262626390510337        0.4343777282764022E-01
     3.270970703529545        0.4271370893425076E-01
     3.279315016548753        0.4199833787302525E-01
     3.287659329567961        0.4129153616480075E-01
     3.296003642587169        0.4059318161072006E-01
     3.304347955606377        0.3990315328087587E-01
     3.312692268625585        0.3922133150294638E-01
     3.321036581644793        0.3854759785083126E-01
     3.329380894664001        0.3788183513329635E-01
     3.337725207683209        0.3722392738263219E-01
     3.346069520702417        0.3657375984333834E-01
     3.354413833721625        0.3593121896083229E-01
     3.362758146740833        0.3529619237019205E-01
     3.371102459760041        0.3466856888493517E-01
     3.379446772779249        0.3404823848583843E-01
     3.387791085798457        0.3343509230980508E-01
     3.396135398817665        0.3282902263877593E-01
     3.404479711836873        0.3222992288868951E-01
     3.412824024856081        0.3163768759849165E-01
     3.421168337875289        0.3105221241919626E-01
     3.429512650894497        0.3047339410299711E-01
     3.437856963913705        0.2990113049242923E-01
     3.446201276932913        0.2933532050958147E-01
     3.454545589952121        0.2877586414535641E-01
     3.462889902971329        0.2822266244877835E-01
     3.471234215990537        0.2767561751634612E-01
     3.479578529009746        0.2713463248142997E-01
     3.487922842028954        0.2659961150370727E-01
     3.496267155048162        0.2607045975863756E-01
     3.504611468067370        0.2554708342697264E-01
     3.512955781086578        0.2502938968429888E-01
     3.521300094105786        0.2451728669060833E-01
     3.529644407124994        0.2401068357989631E-01
     3.537988720144202        0.2350949044978055E-01
     3.546333033163410        0.2301361835114247E-01
     3.554677346182618        0.2252297927778380E-01
     3.563021659201826        0.2203748615609856E-01
     3.571365972221034        0.2155705283475400E-01
     3.579710285240242        0.2108159407438093E-01
     3.588054598259450        0.2061102553727063E-01
     3.596398911278658        0.2014526377707573E-01
     3.604743224297866        0.1968422622851233E-01
     3.613087537317074        0.1922783119706215E-01
     3.621431850336282        0.1877599784867227E-01
     3.629776163355490        0.1832864619945335E-01
     3.638120476374698        0.1788569710537438E-01
     3.646464789393906        0.1744707225195219E-01
     3.654809102413114        0.1701269414393651E-01
     3.663153415432322        0.1658248609498903E-01
     3.671497728451530        0.1615637221735881E-01
     3.679842041470738        0.1573427741155236E-01
     3.688186354489946        0.1531612735600048E-01
     3.696530667509154        0.1490184849672215E-01
     3.704874980528362        0.1449136803698573E-01
     3.713219293547570        0.1408461392697097E-01
     3.721563606566778        0.1368151485343045E-01
     3.729907919585986        0.1328200022935549E-01
     3.738252232605194        0.1288600018364473E-01
     3.746596545624402        0.1249344555078164E-01
     3.754940858643610        0.1210426786051938E-01
     3.763285171662818        0.1171839932757686E-01
     3.771629484682026        0.1133577284142045E-01
     3.779973797701234        0.1095632196992034E-01
     3.788318110720442        0.1057998131161820E-01
     3.796662423739650        0.1020668913560960E-01
     3.805006736758858        0.9836395589523067E-02
     3.813351049778066        0.9469076811205747E-02
     3.821695362797275        0.9104750976095843E-02
     3.830039675816483        0.8743491528831039E-02
     3.838383988835691        0.8385434870238611E-02
     3.846728301854899        0.8030782047806368E-02
     3.855072614874107        0.7679795380760165E-02
     3.863416927893315        0.7332791455420318E-02
     3.871761240912523        0.6990131903326822E-02
     3.880105553931731        0.6652213123608235E-02
     3.888449866950939        0.6319455807943664E-02
     3.896794179970147        0.5992294852179884E-02
     3.905138492989355        0.5671170020090711E-02
     3.913482806008563        0.5356517563159025E-02
     3.921827119027771        0.5048762886937433E-02
     3.930171432046979        0.4748314278633600E-02
     3.938515745066187        0.4455557662076609E-02
     3.946860058085395        0.4170852317106743E-02
     3.955204371104603        0.3894527484588246E-02
     3.963548684123811        0.3626879771241617E-02
     3.971892997143019        0.3368171267198103E-02
     3.980237310162227        0.3118628291411208E-02
     3.988581623181435        0.2878440684339038E-02
     3.996925936200643        0.2647761572617200E-02
     4.005270249219851        0.2426707536102717E-02
     4.013614562239059        0.2215359113195566E-02
     4.021958875258267        0.2013761585402753E-02
     4.030303188277475        0.1821925986382711E-02
     4.038647501296683        0.1639830283884509E-02
     4.046991814315891        0.1467420684634156E-02
     4.055336127335099        0.1304613011657495E-02
     4.063680440354307        0.1151294099612221E-02
     4.072024753373515        0.1007323144404478E-02
     4.080369066392723        0.8725329248800112E-03
     4.088713379411931        0.7467307793108251E-03
     4.097057692431139        0.6296991525332298E-03
     4.105402005450348        0.5211953977355864E-03
     4.113746318469556        0.4209502417849794E-03
     4.122090631488764        0.3286637019691550E-03
     4.130434944507972        0.2439956822083560E-03
     4.138779257527180        0.1665439332532970E-03
     4.147123570546388        0.9578626125604166E-04
     4.155467883565596        0.3087163057654979E-04
     4.163812196584804         0.000000000000000    
  0  6  1  0  2.000000   #orbital l, n, z, is_polarized, population
 500    0.2006507499579663E-01     10.01247242290252     # npts, delta, cutoff
     0.000000000000000        0.1427597643980301E-01
    0.2006507499579663E-01    0.1449942857325295E-01
    0.4013014999159326E-01    0.1516942511526726E-01
    0.6019522498738990E-01    0.1628252661963019E-01
    0.8026029998318653E-01    0.1783345075268159E-01
    0.1003253749789832        0.1981490362668334E-01
    0.1203904499747798        0.2221765947576447E-01
    0.1404555249705764        0.2503064478770064E-01
    0.1605205999663731        0.2824102464863790E-01
    0.1805856749621697        0.3183429156756722E-01