<preamble>

<basis_specs>
===============================================================================
Cu                   Z=  29    Mass=  63.546        Charge= 0.17977+309
Lmxo=2 Lmxkb= 2    BasisType=split      Semic=T
L=0  Nsemic=1  Cnfigmx=4
          i=1  nzeta=1  polorb=0  (3s)  (semicore shell)
            splnorm:   0.15000    
               vcte:    40.000    
               rinn:    2.0239    
               qcoe:    0.0000    
               qyuk:    0.0000    
               qwid:   0.10000E-01
                rcs:    2.2488    
            lambdas:    1.0000    
          i=2  nzeta=2  polorb=0  (4s)  (to be polarized non-perturbatively)
            splnorm:   0.15000    
               vcte:    40.000    
               rinn:    6.0556    
               qcoe:    0.0000    
               qyuk:    0.0000    
               qwid:   0.10000E-01
                rcs:    6.7217      4.6913    
            lambdas:    1.0000      1.0000    
L=1  Nsemic=1  Cnfigmx=4
          i=1  nzeta=1  polorb=0  (3p)  (semicore shell)
            splnorm:   0.15000    
               vcte:    40.000    
               rinn:    2.2558    
               qcoe:    0.0000    
               qyuk:    0.0000    
               qwid:   0.10000E-01
                rcs:    2.5064    
            lambdas:    1.0000    
          i=2  nzeta=1  polorb=0  (4p)  (non-perturbative polarization shell)
            splnorm:   0.15000    
               vcte:    40.000    
               rinn:    6.0556    
               qcoe:    0.0000    
               qyuk:    0.0000    
               qwid:   0.10000E-01
                rcs:    6.7217    
            lambdas:    1.0000    
L=2  Nsemic=0  Cnfigmx=3
          i=1  nzeta=2  polorb=0  (3d)
            splnorm:   0.15000    
               vcte:    40.000    
               rinn:    3.9917    
               qcoe:    0.0000    
               qyuk:    0.0000    
               qwid:   0.10000E-01
                rcs:    4.4308      2.5830    
            lambdas:    1.0000      1.0000    
-------------------------------------------------------------------------------
L=0  Nkbl=2  erefs: 0.17977+309 0.17977+309
L=1  Nkbl=2  erefs: 0.17977+309 0.17977+309
L=2  Nkbl=1  erefs: 0.17977+309
===============================================================================
</basis_specs>

<pseudopotential_header>
 Cu pb nrl pcec
 ONCVPSP-3.2017-10-31Hamann's oncvpsp                        
 3s 2.00  r= 1.26/3p 6.00  r= 1.46/3d10.00  r= 1.76/                    3s:3p:3d:4s:
</pseudopotential_header>
</preamble>
Cu                            # Symbol
Cu                            # Label
   29                         # Atomic number
     19.0000000000                             # Valence charge
     63.5460000000        # Mass 
     465.280489249        # Self energy 
   2   7                      # Lmax for basis, no. of nl orbitals 
   2   6                      # Lmax for projectors, no. of nl KB projectors
# PAOs:__________________________
  0  3  1  0  2.000000   #orbital l, n, z, is_polarized, population
 500    0.4506595641323313E-02     2.248791225020333     # npts, delta, cutoff
     0.000000000000000         3.166519004438170    
    0.4506595641323313E-02     3.166341787247880    
    0.9013191282646625E-02     3.166110064920700    
    0.1351978692396994E-01     3.165724032558366    
    0.1802638256529325E-01     3.165183669253770    
    0.2253297820661656E-01     3.164489012478649    
    0.2703957384793988E-01     3.163640120978793    
    0.3154616948926318E-01     3.162637069454504    
    0.3605276513058650E-01     3.161479947210339    
    0.4055936077190982E-01     3.160168857683656    
    0.4506595641323313E-01     3.158703918234044    
    0.4957255205455643E-01     3.157085260025307    
    0.5407914769587975E-01     3.155313027944068    
    0.5858574333720307E-01     3.153387380533654    
    0.6309233897852637E-01     3.151308489934407    
    0.6759893461984968E-01     3.149076541826329    
    0.7210553026117300E-01     3.146691735372366    
    0.7661212590249632E-01     3.144154283161573    
    0.8111872154381963E-01     3.141464411151887    
    0.8562531718514294E-01     3.138622358612613    
    0.9013191282646625E-01     3.135628378066875    
    0.9463850846778957E-01     3.132482735234308    
    0.9914510410911287E-01     3.129185708974433    
    0.1036516997504362         3.125737591231109    
    0.1081582953917595         3.122138686978550    
    0.1126648910330828         3.118389314169353    
    0.1171714866744061         3.114489803685076    
    0.1216780823157294         3.110440499289811    
    0.1261846779570527         3.106241757587262    
    0.1306912735983761         3.101893947981868    
    0.1351978692396994         3.097397452644409    
    0.1397044648810227         3.092752666482610    
    0.1442110605223460         3.087959997117215    
    0.1487176561636693         3.083019864864009    
    0.1532242518049926         3.077932702722225    
    0.1577308474463159         3.072698956369766    
    0.1622374430876393         3.067319084165680    
    0.1667440387289626         3.061793557160256    
    0.1712506343702859         3.056122859113140    
    0.1757572300116092         3.050307486519791    
    0.1802638256529325         3.044347948646591    
    0.1847704212942558         3.038244767574938    
    0.1892770169355791         3.031998478254532    
    0.1937836125769024         3.025609628566098    
    0.1982902082182257         3.019078779393727    
    0.2027968038595491         3.012406504707010    
    0.2073033995008724         3.005593391653059    
    0.2118099951421957         2.998640040658492    
    0.2163165907835190         2.991547065541432    
    0.2208231864248423         2.984315093633511    
    0.2253297820661656         2.976944765911850    
    0.2298363777074889         2.969436737140872    
    0.2343429733488123         2.961791676023894    
    0.2388495689901356         2.954010265364303    
    0.2433561646314589         2.946093202236058    
    0.2478627602727822         2.938041198163289    
    0.2523693559141055         2.929854979308737    
    0.2568759515554288         2.921535286670611    
    0.2613825471967521         2.913082876287494    
    0.2658891428380755         2.904498519450909    
    0.2703957384793987         2.895783002925060    
    0.2749023341207221         2.886937129173190    
    0.2794089297620454         2.877961716590053    
    0.2839155254033687         2.868857599739883    
    0.2884221210446920         2.859625629599269    
    0.2929287166860153         2.850266673804221    
    0.2974353123273386         2.840781616900755    
    0.3019419079686619         2.831171360598281    
    0.3064485036099853         2.821436824025011    
    0.3109550992513085         2.811578943984585    
    0.3154616948926319         2.801598675213146    
    0.3199682905339552         2.791496990635986    
    0.3244748861752785         2.781274881622864    
    0.3289814818166018         2.770933358241194    
    0.3334880774579251         2.760473449506133    
    0.3379946730992485         2.749896203626690    
    0.3425012687405717         2.739202688246895    
    0.3470078643818951         2.728393990681104    
    0.3515144600232184         2.717471218142494    
    0.3560210556645417         2.706435497963775    
    0.3605276513058650         2.695287977809215    
    0.3650342469471883         2.684029825876930    
    0.3695408425885116         2.672662231090617    
    0.3740474382298349         2.661186403279633    
    0.3785540338711583         2.649603573346663    
    0.3830606295124815         2.637914993421868    
    0.3875672251538049         2.626121937002786    
    0.3920738207951282         2.614225699078928    
    0.3965804164364515         2.602227596240367    
    0.4010870120777748         2.590128966769305    
    0.4055936077190981         2.577931170713979    
    0.4101002033604215         2.565635589943917    
    0.4146067990017447         2.553243628186005    
    0.4191133946430681         2.540756711040436    
    0.4236199902843914         2.528176285975978    
    0.4281265859257147         2.515503822303864    
    0.4326331815670380         2.502740811129718    
    0.4371397772083613         2.489888765282914    
    0.4416463728496846         2.476949219956221    
    0.4461529684910079         2.463923735017461    
    0.4506595641323313         2.450813883089960    
    0.4551661597736545         2.437621262708910    
    0.4596727554149779         2.424347493442063    
    0.4641793510563012         2.410994215657488    
    0.4686859466976245         2.397563090283124    
    0.4731925423389478         2.384055798540990    
    0.4776991379802711         2.370474041655893    
    0.4822057336215945         2.356819540538619    
    0.4867123292629177         2.343094035443583    
    0.4912189249042411         2.329299285600980    
    0.4957255205455644         2.315437068823582    
    0.5002321161868877         2.301509181088325    
    0.5047387118282110         2.287517436092899    
    0.5092453074695343         2.273463664787653    
    0.5137519031108576         2.259349714883133    
    0.5182584987521810         2.245177450333618    
    0.5227650943935043         2.230948750797179    
    0.5272716900348275         2.216665511072659    
    0.5317782856761509         2.202329640514189    
    0.5362848813174742         2.187943062423847    
    0.5407914769587975         2.173507713423071    
    0.5452980726001209         2.159025542803553    
    0.5498046682414441         2.144498511858354    
    0.5543112638827674         2.129928593194037    
    0.5588178595240908         2.115317770024652    
    0.5633244551654141         2.100668035448427    
    0.5678310508067373         2.085981391708099    
    0.5723376464480607         2.071259849435835    
    0.5768442420893840         2.056505426883712    
    0.5813508377307073         2.041720149140771    
    0.5858574333720307         2.026906047337692    
    0.5903640290133539         2.012065157840168    
    0.5948706246546772         1.997199521432045    
    0.5993772202960006         1.982311182489354    
    0.6038838159373239         1.967402188146384    
    0.6083904115786472         1.952474587454891    
    0.6128970072199705         1.937530430537637    
    0.6174036028612938         1.922571767737436    
    0.6219101985026171         1.907600648762823    
    0.6264167941439405         1.892619121831583    
    0.6309233897852637         1.877629232813267    
    0.6354299854265870         1.862633024371890    
    0.6399365810679104         1.847632535109984    
    0.6444431767092337         1.832629798715125    
    0.6489497723505571         1.817626843110122    
    0.6534563679918803         1.802625689607985    
    0.6579629636332036         1.787628352072776    
    0.6624695592745270         1.772636836087442    
    0.6669761549158503         1.757653138129704    
    0.6714827505571735         1.742679244757072    
    0.6759893461984969         1.727717131801951    
    0.6804959418398202         1.712768763577893    
    0.6850025374811435         1.697836092097899    
    0.6895091331224669         1.682921056305736    
    0.6940157287637901         1.668025581321128    
    0.6985223244051134         1.653151577699685    
    0.7030289200464368         1.638300940708398    
    0.7075355156877601         1.623475549617426    
    0.7120421113290833         1.608677267008944    
    0.7165487069704067         1.593907938103699    
    0.7210553026117300         1.579169390105955    
    0.7255618982530533         1.564463431567362    
    0.7300684938943767         1.549791851770331    
    0.7345750895356999         1.535156420131399    
    0.7390816851770232         1.520558885625027    
    0.7435882808183466         1.506000976228215    
    0.7480948764596699         1.491484398386304    
    0.7526014721009932         1.477010836500233    
    0.7571080677423165         1.462581952435512    
    0.7616146633836398         1.448199385053115    
    0.7661212590249631         1.433864749762394    
    0.7706278546662865         1.419579638096182    
    0.7751344503076097         1.405345617308052    
    0.7796410459489330         1.391164229991797    
    0.7841476415902564         1.377036993723021    
    0.7886542372315797         1.362965400722825    
    0.7931608328729030         1.348950917543331    
    0.7976674285142263         1.334994984775024    
    0.8021740241555496         1.321099016775466    
    0.8066806197968730         1.307264401419379    
    0.8111872154381963         1.293492499869469    
    0.8156938110795195         1.279784646368013    
    0.8202004067208429         1.266142148048453    
    0.8247070023621662         1.252566284766902    
    0.8292135980034895         1.239058308952850    
    0.8337201936448129         1.225619445478797    
    0.8382267892861361         1.212250891548154    
    0.8427333849274594         1.198953816600952    
    0.8472399805687828         1.185729362236815    
    0.8517465762101061         1.172578642154491    
    0.8562531718514294         1.159502742107586    
    0.8607597674927527         1.146502719875508    
    0.8652663631340760         1.133579605249469    
    0.8697729587753993         1.120734400032386    
    0.8742795544167227         1.107968078052482    
    0.8787861500580459         1.095281585189569    
    0.8832927456993692         1.082675839413560    
    0.8877993413406926         1.070151730834515    
    0.8923059369820159         1.057710121763356    
    0.8968125326233392         1.045351846782959    
    0.9013191282646625         1.033077712828430    
    0.9058257239059858         1.020888499276488    
    0.9103323195473091         1.008784958042816    
    0.9148389151886325        0.9967678136869919    
    0.9193455108299557        0.9848377635243901    
    0.9238521064712790        0.9729954777441394    
    0.9283587021126024        0.9612415995330379    
    0.9328652977539257        0.9495767452043139    
    0.9373718933952491        0.9380015043310418    
    0.9418784890365723        0.9265164398835544    
    0.9463850846778956        0.9151220883701778    
    0.9508916803192190        0.9038189599811512    
    0.9553982759605423        0.8926075387348466    
    0.9599048716018656        0.8814882826261642    
    0.9644114672431889        0.8704616237765632    
    0.9689180628845122        0.8595279685852466    
    0.9734246585258355        0.8486876978813855    
    0.9779312541671589        0.8379411670768026    
    0.9824378498084821        0.8272887063189663    
    0.9869444454498054        0.8167306206440129    
    0.9914510410911288        0.8062671901294711    
    0.9959576367324521        0.7958986700466332    
     1.000464232373775        0.7856252910122770    
     1.004970828015099        0.7754472591396507    
     1.009477423656422        0.7653647561886061    
     1.013984019297745        0.7553779397148156    
     1.018490614939069        0.7454869432179955    
     1.022997210580392        0.7356918762891460    
     1.027503806221715        0.7259928247568823    
     1.032010401863038        0.7163898508327042    
     1.036516997504362        0.7068829932555157    
     1.041023593145685        0.6974722674353748    
     1.045530188787009        0.6881576655965046    
     1.050036784428332        0.6789391569199966    
     1.054543380069655        0.6698166876860728    
     1.059049975710978        0.6607901814162138    
     1.063556571352302        0.6518595390156054    
     1.068063166993625        0.6430246389156645    
     1.072569762634948        0.6342853372172695    
     1.077076358276272        0.6256414678350426    
     1.081582953917595        0.6170928426424920    
     1.086089549558918        0.6086392516187944    
     1.090596145200242        0.6002804629975218    
     1.095102740841565        0.5920162234170927    
     1.099609336482888        0.5838462580739777    
     1.104115932124212        0.5757702708786953    
     1.108622527765535        0.5677879446146644    
     1.113129123406858        0.5598989411008339    
     1.117635719048182        0.5521029013580938    
     1.122142314689505        0.5443994457796311    
     1.126648910330828        0.5367881743061271    
     1.131155505972151        0.5292686666057286    
     1.135662101613475        0.5218404822590351    
     1.140168697254798        0.5145031609499330    
     1.144675292896121        0.5072562226621797    
     1.149181888537445        0.5000991678820029    
     1.153688484178768        0.4930314778074445    
     1.158195079820091        0.4860526145644066    
     1.162701675461415        0.4791620214295136    
     1.167208271102738        0.4723591230605513    
     1.171714866744061        0.4656433257344036    
     1.176221462385385        0.4590140175924936    
     1.180728058026708        0.4524705688944473    
     1.185234653668031        0.4460123322799026    
     1.189741249309354        0.4396386430383298    
     1.194247844950678        0.4333488193874896    
     1.198754440592001        0.4271421627605547    
     1.203261036233324        0.4210179581015014    
     1.207767631874648        0.4149754741693999    
     1.212274227515971        0.4090139638515885    
     1.216780823157294        0.4031326644851713    
     1.221287418798618        0.3973307981663896    
     1.225794014439941        0.3916075719823530    
     1.230300610081264        0.3859621785559808    
     1.234807205722588        0.3803937965827904    
     1.239313801363911        0.3749015915615228    
     1.243820397005234        0.3694847155215232    
     1.248326992646558        0.3641423062709557    
     1.252833588287881        0.3588734872486099    
     1.257340183929204        0.3536773687209444    
     1.261846779570527        0.3485530514431123    
     1.266353375211851        0.3434996305679223    
     1.270859970853174        0.3385161998080319    
     1.275366566494498        0.3336018554989634    
     1.279873162135821        0.3287557001787719    
     1.284379757777144        0.3239768457831728    
     1.288886353418467        0.3192644146999147    
     1.293392949059791        0.3146175392720434    
     1.297899544701114        0.3100353609444370    
     1.302406140342437        0.3055170293835834    
     1.306912735983761        0.3010617028029303    
     1.311419331625084        0.2966685480903415    
     1.315925927266407        0.2923367410142885    
     1.320432522907730        0.2880654661903713    
     1.324939118549054        0.2838539169990509    
     1.329445714190377        0.2797012955631581    
     1.333952309831701        0.2756068127226413    
     1.338458905473024        0.2715696880062756    
     1.342965501114347        0.2675891496002372    
     1.347472096755670        0.2636644343138766    
     1.351978692396994        0.2597947875429514    
     1.356485288038317        0.2559794632303190    
     1.360991883679640        0.2522177238242368    
     1.365498479320964        0.2485088402343060    
     1.370005074962287        0.2448520917855591    
     1.374511670603610        0.2412467661704051    
     1.379018266244934        0.2376921593986295    
     1.383524861886257        0.2341875757457417    
     1.388031457527580        0.2307323276997045    
     1.392538053168904        0.2273257359060815    
     1.397044648810227        0.2239671291115384    
     1.401551244451550        0.2206558441063683    
     1.406057840092874        0.2173912256656396    
     1.410564435734197        0.2141726264891156    
     1.415071031375520        0.2109994071392819    
     1.419577627016843        0.2078709359801896    
     1.424084222658167        0.2047865891143149    
     1.428590818299490        0.2017457503181492    
     1.433097413940813        0.1987478109772608    
     1.437604009582137        0.1957921700213208    
     1.442110605223460        0.1928782338560699    
     1.446617200864783        0.1900054163014897    
     1.451123796506107        0.1871731385213908    
     1.455630392147430        0.1843808289550603    
     1.460136987788753        0.1816279232476711    
     1.464643583430077        0.1789138641878101    
     1.469150179071400        0.1762381016343063    
     1.473656774712723        0.1736000924491913    
     1.478163370354046        0.1709993004354500    
     1.482669965995370        0.1684351962433324    
     1.487176561636693        0.1659072573236333    
     1.491683157278016        0.1634149678515943    
     1.496189752919340        0.1609578186534095    
     1.500696348560663        0.1585353071497592    
     1.505202944201986        0.1561469372726310    
     1.509709539843310        0.1537922193996425    
     1.514216135484633        0.1514706702850342    
     1.518722731125956        0.1491818129900310    
     1.523229326767280        0.1469251768140190    
     1.527735922408603        0.1447002972252746    
     1.532242518049926        0.1425067157920591    
     1.536749113691250        0.1403439801140069    
     1.541255709332573        0.1382116437536665    
     1.545762304973896        0.1361092661683776    
     1.550268900615219        0.1340364126424324    
     1.554775496256543        0.1319926542194475    
     1.559282091897866        0.1299775676351932    
     1.563788687539190        0.1279907352506781    
     1.568295283180513        0.1260317449856208    
     1.572801878821836        0.1241001902522184    
     1.577308474463159        0.1221956698894092    
     1.581815070104483        0.1203177880974706    
     1.586321665745806        0.1184661543730486    
     1.590828261387129        0.1166403834445654    
     1.595334857028453        0.1148400952081187    
     1.599841452669776        0.1130649146638053    
     1.604348048311099        0.1113144718524946    
     1.608854643952423        0.1095884017930508    
     1.613361239593746        0.1078863444200384    
     1.617867835235069        0.1062079445219216    
     1.622374430876393        0.1045528516797314    
     1.626881026517716        0.1029207202062290    
     1.631387622159039        0.1013112090855394    
     1.635894217800362        0.9972398191334551E-01
     1.640400813441686        0.9815870683755001E-01
     1.644907409083009        0.9661505649946603E-01
     1.649414004724332        0.9509270797548407E-01
     1.653920600365656        0.9359134271932013E-01
     1.658427196006979        0.9211064650475158E-01
     1.662933791648302        0.9065030936888938E-01
     1.667440387289626        0.8921002555595681E-01
     1.671946982930949        0.8778949346161459E-01
     1.676453578572272        0.8638841557781919E-01
     1.680960174213596        0.8500649843820268E-01
     1.685466769854919        0.8364345256396734E-01
     1.689973365496242        0.8229899241026925E-01
     1.694479961137566        0.8097283631334955E-01
     1.698986556778889        0.7966470643807670E-01
     1.703493152420212        0.7837432872726738E-01
     1.707999748061535        0.7710143284667871E-01
     1.712506343702859        0.7584575213631084E-01
     1.717012939344182        0.7460702356086554E-01
     1.721519534985505        0.7338498765964391E-01
     1.726026130626829        0.7217938849875991E-01
     1.730532726268152        0.7098997361589073E-01
     1.735039321909475        0.6981649397858483E-01
     1.739545917550799        0.6865870393406842E-01
     1.744052513192122        0.6751636115645077E-01
     1.748559108833445        0.6638922661363014E-01
     1.753065704474769        0.6527706451831632E-01
     1.757572300116092        0.6417964227208918E-01
     1.762078895757415        0.6309673042428091E-01
     1.766585491398738        0.6202810261762681E-01
     1.771092087040062        0.6097353557531569E-01
     1.775598682681385        0.5993280903044069E-01
     1.780105278322708        0.5890570568986476E-01
     1.784611873964032        0.5789201120102918E-01
     1.789118469605355        0.5689151411429855E-01
     1.793625065246678        0.5590400577234959E-01
     1.798131660888002        0.5492928035267225E-01
     1.802638256529325        0.5396713479810872E-01
     1.807144852170648        0.5301736876597999E-01
     1.811651447811972        0.5207978460777057E-01
     1.816158043453295        0.5115418733501741E-01
     1.820664639094618        0.5024038455416559E-01
     1.825171234735942        0.4933818643985830E-01
     1.829677830377265        0.4844740569907342E-01
     1.834184426018588        0.4756785752937271E-01
     1.838691021659911        0.4669935958493018E-01
     1.843197617301235        0.4584173194045203E-01
     1.847704212942558        0.4499479705421558E-01
     1.852210808583882        0.4415837973235271E-01
     1.856717404225205        0.4333230709342574E-01
     1.861223999866528        0.4251640853356228E-01
     1.865730595507851        0.4171051569191864E-01
     1.870237191149175        0.4091446241662504E-01
     1.874743786790498        0.4012808472460291E-01
     1.879250382431821        0.3935122078997498E-01
     1.883756978073145        0.3858371088948278E-01
     1.888263573714468        0.3782539737556547E-01
     1.892770169355791        0.3707612464542444E-01
     1.897276764997115        0.3633573910971098E-01
     1.901783360638438        0.3560408916172925E-01
     1.906289956279761        0.3488102514647264E-01
     1.910796551921085        0.3416639933004750E-01
     1.915303147562408        0.3346006586953050E-01
     1.919809743203731        0.3276188078315342E-01
     1.924316338845054        0.3207170192080198E-01
     1.928822934486378        0.3138938893504100E-01
     1.933329530127701        0.3071480325250178E-01
     1.937836125769024        0.3004780804558593E-01
     1.942342721410348        0.2938826820451666E-01
     1.946849317051671        0.2873605030975782E-01
     1.951355912692994        0.2809102260472732E-01
     1.955862508334318        0.2745305496884495E-01
     1.960369103975641        0.2682201889092187E-01
     1.964875699616964        0.2619778744286899E-01
     1.969382295258288        0.2558023525373695E-01
     1.973888890899611        0.2496923848406328E-01
     1.978395486540934        0.2436467480053280E-01
     1.982902082182258        0.2376642335095014E-01
     1.987408677823581        0.2317436473951346E-01
     1.991915273464904        0.2258838100239220E-01
     1.996421869106227        0.2200835558360049E-01
     2.000928464747551        0.2143417331115567E-01
     2.005435060388874        0.2086572037353098E-01
     2.009941656030197        0.2030288429639097E-01
     2.014448251671521        0.1974555391960424E-01
     2.018954847312844        0.1919361937454297E-01
     2.023461442954167        0.1864697206163809E-01
     2.027968038595491        0.1810550462821269E-01
     2.032474634236814        0.1756911094657794E-01
     2.036981229878137        0.1703768609244538E-01
     2.041487825519460        0.1651112633487917E-01
     2.045994421160784        0.1598932941055497E-01
     2.050501016802107        0.1547219667000463E-01
     2.055007612443430        0.1495963981101490E-01
     2.059514208084754        0.1445159255347417E-01
     2.064020803726077        0.1394802408668991E-01
     2.068527399367400        0.1344895042229699E-01
     2.073033995008724        0.1295444138365613E-01
     2.077540590650047        0.1246462279809602E-01
     2.082047186291371        0.1197967458781062E-01
     2.086553781932694        0.1149982587866468E-01
     2.091060377574017        0.1102534824098839E-01
     2.095566973215340        0.1055654798368744E-01
     2.100073568856664        0.1009375818514907E-01
     2.104580164497987        0.9637330927677691E-02
     2.109086760139310        0.9187630029069124E-02
     2.113593355780634        0.8745024436920218E-02
     2.118099951421957        0.8309882361662373E-02
     2.122606547063280        0.7882566164481773E-02
     2.127113142704604        0.7463427978300285E-02
     2.131619738345927        0.7052806017331479E-02
     2.136126333987250        0.6651021518543598E-02
     2.140632929628573        0.6258376253084077E-02
     2.145139525269897        0.5875150544806474E-02
     2.149646120911220        0.5501601734800125E-02
     2.154152716552543        0.5137963033998028E-02
     2.158659312193867        0.4784442709764118E-02
     2.163165907835190        0.4441223556241543E-02
     2.167672503476513        0.4108462601792427E-02
     2.172179099117836        0.3786291009704173E-02
     2.176685694759160        0.3474814130186898E-02
     2.181192290400483        0.3174111662064572E-02
     2.185698886041807        0.2884237880889587E-02
     2.190205481683130        0.2605221885462081E-02
     2.194712077324453        0.2337067805223004E-02
     2.199218672965777        0.2079754893657144E-02
     2.203725268607100        0.1833237402116053E-02
     2.208231864248423        0.1597444073458053E-02
     2.212738459889747        0.1372276993557612E-02
     2.217245055531070        0.1157609343153036E-02
     2.221751651172393        0.9532811907641872E-03
     2.226258246813716        0.7590915718465315E-03
     2.230764842455040        0.5747828750232703E-03
     2.235271438096363        0.4000071469715430E-03
     2.239778033737686        0.2342404419945877E-03
     2.244284629379010        0.7648665336603201E-04
     2.248791225020333         0.000000000000000    
  0  4  1  0  1.000000   #orbital l, n, z, is_polarized, population
 500    0.1347036903758173E-01     6.721714149753284     # npts, delta, cutoff
     0.000000000000000         1.408093548564654    
    0.1347036903758173E-01     1.407402579431680    
    0.2694073807516346E-01     1.405464346311251    