<preamble>

<basis_specs>
===============================================================================
He                   Z=   2    Mass=  4.0026        Charge= 0.17977+309
Lmxo=1 Lmxkb= 1    BasisType=split      Semic=F
L=0  Nsemic=0  Cnfigmx=1
          i=1  nzeta=2  polorb=1  (1s)  (to be polarized perturbatively)
            splnorm:   0.15000    
               vcte:    40.000    
               rinn:    3.4900    
               qcoe:    0.0000    
               qyuk:    0.0000    
               qwid:   0.10000E-01
                rcs:    3.8739      2.3246    
            lambdas:    1.0000      1.0000    
L=1  Nsemic=0  Cnfigmx=2
          i=1  nzeta=0  polorb=0  (2p)  (perturbative polarization orbital) (from 1s)
-------------------------------------------------------------------------------
L=0  Nkbl=1  erefs: 0.17977+309
L=1  Nkbl=1  erefs: 0.17977+309
===============================================================================
</basis_specs>

<pseudopotential_header>
 He pb nrl nc  
 ONCVPSP-3.2017-10-31Hamann's oncvpsp                        
 1s 2.00  r= 1.26/2p 0.00  r= 1.14/                                     1s:
</pseudopotential_header>
</preamble>
He                            # Symbol
He                            # Label
    2                         # Atomic number
     2.00000000000                             # Valence charge
     4.00260000000        # Mass 
     6.36208199882        # Self energy 
   1   3                      # Lmax for basis, no. of nl orbitals 
   1   3                      # Lmax for projectors, no. of nl KB projectors
# PAOs:__________________________
  0  1  1  0  2.000000   #orbital l, n, z, is_polarized, population
 500    0.7763248902276139E-02     3.873861202235793     # npts, delta, cutoff
     0.000000000000000         2.999700610545176    
    0.7763248902276139E-02     2.999338819588002    
    0.1552649780455228E-01     2.998283703110057    
    0.2328974670682842E-01     2.996526253302267    
    0.3105299560910455E-01     2.994068068919499    
    0.3881624451138069E-01     2.990911388834131    
    0.4657949341365683E-01     2.987059086645401    
    0.5434274231593297E-01     2.982514666208348    
    0.6210599121820911E-01     2.977282256477206    
    0.6986924012048525E-01     2.971366605490385    
    0.7763248902276139E-01     2.964773073468450    
    0.8539573792503753E-01     2.957507625023676    
    0.9315898682731366E-01     2.949576820487585    
    0.1009222357295898         2.940987806366158    
    0.1086854846318659         2.931748304934326    
    0.1164487335341421         2.921866602983182    
    0.1242119824364182         2.911351539734790    
    0.1319752313386943         2.900212493940973    
    0.1397384802409705         2.888459370184144    
    0.1475017291432466         2.876102584399599    
    0.1552649780455228         2.863153048640462    
    0.1630282269477989         2.849622155108059    
    0.1707914758500751         2.835521759472055    
    0.1785547247523512         2.820864163506588    
    0.1863179736546273         2.805662097070042    
    0.1940812225569035         2.789928699458005    
    0.2018444714591796         2.773677500160773    
    0.2096077203614558         2.756922399057966    
    0.2173709692637319         2.739677646085170    
    0.2251342181660080         2.721957820408633    
    0.2328974670682842         2.703777809145917    
    0.2406607159705603         2.685152785671755    
    0.2484239648728364         2.666098187550352    
    0.2561872137751126         2.646629694135927    
    0.2639504626773887         2.626763203885651    
    0.2717137115796648         2.606514811429271    
    0.2794769604819410         2.585900784442118    
    0.2872402093842171         2.564937540367886    
    0.2950034582864933         2.543641623039359    
    0.3027667071887694         2.522029679245666    
    0.3105299560910456         2.500118435295344    
    0.3182932049933217         2.477924673624591    
    0.3260564538955978         2.455465209500925    
    0.3338197027978740         2.432756867872047    
    0.3415829517001501         2.409816460409671    
    0.3493462006024262         2.386660762798241    
    0.3571094495047024         2.363306492317612    
    0.3648726984069785         2.339770285767726    
    0.3726359473092546         2.316068677783784    
    0.3803991962115308         2.292218079574385    
    0.3881624451138069         2.268234785110738    
    0.3959256940160831         2.244134872668833    
    0.4036889429183592         2.219934257049862    
    0.4114521918206354         2.195648653681425    
    0.4192154407229115         2.171293556417083    
    0.4269786896251876         2.146884219805438    
    0.4347419385274638         2.122435642077707    
    0.4425051874297399         2.097962548885760    
    0.4502684363320160         2.073479377819895    
    0.4580316852342922         2.049000263733173    
    0.4657949341365683         2.024539024896305    
    0.4735581830388444         2.000109150004204    
    0.4813214319411206         1.975723786052510    
    0.4890846808433967         1.951395727099223    
    0.4968479297456729         1.927137403923912    
    0.5046111786479490         1.902960874593427    
    0.5123744275502251         1.878877815940463    
    0.5201376764525013         1.854899515957995    
    0.5279009253547774         1.831036867109607    
    0.5356641742570536         1.807300360552880    
    0.5434274231593297         1.783700081269844    
    0.5511906720616059         1.760245704095909    
    0.5589539209638820         1.736946490635603    
    0.5667171698661582         1.713811287051126    
    0.5744804187684343         1.690848522706726    
    0.5822436676707105         1.668066209649902    
    0.5900069165729865         1.645471942907826    
    0.5977701654752626         1.623072901575351    
    0.6055334143775388         1.600875850668939    
    0.6132966632798149         1.578887143719087    
    0.6210599121820911         1.557112726072090    
    0.6288231610843672         1.535558138870443    
    0.6365864099866434         1.514228523680177    
    0.6443496588889195         1.493128627731934    
    0.6521129077911957         1.472262809741949    
    0.6598761566934718         1.451635046278328    
    0.6676394055957480         1.431248938637376    
    0.6754026544980241         1.411107720194445    
    0.6831659034003003         1.391214264193630    
    0.6909291523025763         1.371571091940586    
    0.6986924012048524         1.352180381362957    
    0.7064556501071286         1.333043975903229    
    0.7142188990094047         1.314163393709278    
    0.7219821479116809         1.295539837088659    
    0.7297453968139570         1.277174202193283    
    0.7375086457162332         1.259067088902150    
    0.7452718946185093         1.241218810870792    
    0.7530351435207855         1.223629405717190    
    0.7607983924230616         1.206298645315145    
    0.7685616413253378         1.189226046167370    
    0.7763248902276139         1.172410879831910    
    0.7840881391298901         1.155852183376879    
    0.7918513880321661         1.139548769840018    
    0.7996146369344422         1.123499238670880    
    0.8073778858367184         1.107701986135158    
    0.8151411347389945         1.092155215661872    
    0.8229043836412707         1.076856948115809    
    0.8306676325435468         1.061805031978962    
    0.8384308814458230         1.046997153426112    
    0.8461941303480991         1.032430846281097    
    0.8539573792503753         1.018103501841575    
    0.8617206281526514         1.004012378561397    
    0.8694838770549276        0.9901546115808836    
    0.8772471259572037        0.9765272220963286    
    0.8850103748594799        0.9631271265612362    
    0.8927736237617560        0.9499511457126268    
    0.9005368726640320        0.9369960134166463    
    0.9083001215663082        0.9242583853285546    
    0.9160633704685843        0.9117348473627956    
    0.9238266193708605        0.8994219239694827    
    0.9315898682731366        0.8873160862141417    
    0.9393531171754128        0.8754137596580315    
    0.9471163660776889        0.8637113320366644    
    0.9548796149799651        0.8522051607344364    
    0.9626428638822412        0.8408915800535268    
    0.9704061127845174        0.8297669082752880    
    0.9781693616867935        0.8188274545124609    
    0.9859326105890697        0.8080695253505555    
    0.9936958594913458        0.7974894312767326    
     1.001459108393622        0.7870834928943954    
     1.009222357295898        0.7768480469216094    
     1.016985606198174        0.7667794519713511    
     1.024748855100450        0.7568740941113907    
     1.032512104002727        0.7471283922015141    
     1.040275352905003        0.7375388030055336    
     1.048038601807279        0.7281018260753980    
     1.055801850709555        0.7188140084046076    
     1.063565099611831        0.7096719488479244    
     1.071328348514107        0.7006723023043098    
     1.079091597416383        0.6918117836599058    
     1.086854846318659        0.6830871714878192    
     1.094618095220935        0.6744953115015103    
     1.102381344123212        0.6660331197585901    
     1.110144593025488        0.6576975856119364    
     1.117907841927764        0.6494857744051168    
     1.125671090830040        0.6413948299093452    
     1.133434339732316        0.6334219764995417    
     1.141197588634592        0.6255645210671690    
     1.148960837536869        0.6178198546680069    
     1.156724086439145        0.6101854539034256    
     1.164487335341421        0.6026588820341344    
     1.172250584243697        0.5952377898259837    
     1.180013833145973        0.5879199161278510    
     1.187777082048249        0.5807030881823085    
     1.195540330950525        0.5735852216704166    
     1.203303579852802        0.5665643204926646    
     1.211066828755078        0.5596384762887217    
     1.218830077657354        0.5528058676994355    
     1.226593326559630        0.5460647594053465    
     1.234356575461906        0.5394135009701452    
     1.242119824364182        0.5328505247584957    
     1.249883073266458        0.5263743441207601    
     1.257646322168734        0.5199835546135596    
     1.265409571071011        0.5136768308510546    
     1.273172819973287        0.5074529116775500    
     1.280936068875563        0.5013105811512004    
     1.288699317777839        0.4952486513853657    
     1.296462566680115        0.4892659518518999    
     1.304225815582391        0.4833613291224499    
     1.311989064484667        0.4775336492590509    
     1.319752313386944        0.4717817971945290    
     1.327515562289220        0.4661046758351686    
     1.335278811191496        0.4605012058140904    
     1.343042060093772        0.4549703251912648    
     1.350805308996048        0.4495109891317923    
     1.358568557898324        0.4441221695905415    
     1.366331806800601        0.4388028550030875    
     1.374095055702877        0.4335520499831920    
     1.381858304605153        0.4283687750266807    
     1.389621553507429        0.4232520662215647    
     1.397384802409705        0.4182009749642761    
     1.405148051311981        0.4132145676818646    
     1.412911300214257        0.4082919255600351    
     1.420674549116533        0.4034321442768770    
     1.428437798018809        0.3986343337421693    
     1.436201046921086        0.3938976178421226    
     1.443964295823362        0.3892211341894425    
     1.451727544725638        0.3846040338785929    
     1.459490793627914        0.3800454812461332    
     1.467254042530190        0.3755446536360202    
     1.475017291432466        0.3711007411697445    
     1.482780540334742        0.3667129465212200    
     1.490543789237019        0.3623804846962901    
     1.498307038139295        0.3581025828167589    
     1.506070287041571        0.3538784799088297    
     1.513833535943847        0.3497074266958625    
     1.521596784846123        0.3455886853953526    
     1.529360033748399        0.3415215295200154    
     1.537123282650676        0.3375052436829040    
     1.544886531552952        0.3335391234064357    
     1.552649780455228        0.3296224749352798    
     1.560413029357504        0.3257546150529815    
     1.568176278259780        0.3219348709022526    
     1.575939527162056        0.3181625798088437    
     1.583702776064332        0.3144370891088917    
     1.591466024966608        0.3107577559797119    
     1.599229273868884        0.3071239472739001    
     1.606992522771161        0.3035350393567076    
     1.614755771673437        0.2999904179465951    
     1.622519020575713        0.2964894779588846    
     1.630282269477989        0.2930316233524746    
     1.638045518380265        0.2896162669794973    
     1.645808767282541        0.2862428304378967    
     1.653572016184818        0.2829107439268284    
     1.661335265087094        0.2796194461048213    
     1.669098513989370        0.2763683839506659    
     1.676861762891646        0.2731570126269197    
     1.684625011793922        0.2699847953460138    
     1.692388260696198        0.2668512032388852    
     1.700151509598474        0.2637557152260551    
     1.707914758500751        0.2606978178911469    
     1.715678007403027        0.2576770053567399    
     1.723441256305303        0.2546927791625274    
     1.731204505207579        0.2517446481457447    
     1.738967754109855        0.2488321283237622    
     1.746731003012131        0.2459547427788707    
     1.754494251914407        0.2431120215451519    
     1.762257500816683        0.2403035014974020    
     1.770020749718960        0.2375287262420824    
     1.777783998621236        0.2347872460102182    
     1.785547247523512        0.2320786175522281    
     1.793310496425788        0.2294024040346539    
     1.801073745328064        0.2267581749386974    
     1.808836994230340        0.2241455059605907    
     1.816600243132616        0.2215639789137190    
     1.824363492034893        0.2190131816324468    
     1.832126740937169        0.2164927078776672    
     1.839889989839445        0.2140021572439798    
     1.847653238741721        0.2115411350684750    
     1.855416487643997        0.2091092523411346    
     1.863179736546273        0.2067061256167543    
     1.870942985448550        0.2043313769283831    
     1.878706234350826        0.2019846337022712    
     1.886469483253102        0.1996655286742395    
     1.894232732155378        0.1973736998074906    
     1.901995981057654        0.1951087902118275    
     1.909759229959930        0.1928704480642079    
     1.917522478862206        0.1906583265306625    
     1.925285727764482        0.1884720836895237    
     1.933048976666758        0.1863113824559185    
     1.940812225569035        0.1841758905075401    
     1.948575474471311        0.1820652802116652    
     1.956338723373587        0.1799792285533446    
     1.964101972275863        0.1779174170648154    
     1.971865221178139        0.1758795317560706    
     1.979628470080415        0.1738652630465448    
     1.987391718982692        0.1718743056979460    
     1.995154967884968        0.1699063587481893    
     2.002918216787244        0.1679611254463743    
     2.010681465689520        0.1660383131888500    
     2.018444714591796        0.1641376334563127    
     2.026207963494072        0.1622588017518973    
     2.033971212396348        0.1604015375402880    
     2.041734461298625        0.1585655641878133    
     2.049497710200900        0.1567506089034834    
     2.057260959103177        0.1549564026809754    
     2.065024208005453        0.1531826802415674    
     2.072787456907729        0.1514291799779582    
     2.080550705810005        0.1496956438989744    
     2.088313954712281        0.1479818175751917    
     2.096077203614557        0.1462874500853905    
     2.103840452516834        0.1446122939638418    
     2.111603701419110        0.1429561051484726    
     2.119366950321386        0.1413186429298194    
     2.127130199223662        0.1396996699007667    
     2.134893448125938        0.1380989519071142    
     2.142656697028214        0.1365162579989050    
     2.150419945930490        0.1349513603824940    
     2.158183194832767        0.1334040343733900    
     2.165946443735043        0.1318740583498373    
     2.173709692637319        0.1303612137071058    
     2.181472941539595        0.1288652848124847    
     2.189236190441871        0.1273860589610107    
     2.196999439344147        0.1259233263318628    
     2.204762688246424        0.1244768799454080    
     2.212525937148699        0.1230465156209661    
     2.220289186050976        0.1216320319352002    
     2.228052434953252        0.1202332301811384    
     2.235815683855528        0.1188499143278492    
     2.243578932757804        0.1174818909807432    
     2.251342181660080        0.1161289693424755    
     2.259105430562356        0.1147909611744347    
     2.266868679464633        0.1134676807588686    
     2.274631928366909        0.1121589448615694    
     2.282395177269185        0.1108645726951126    
     2.290158426171461        0.1095843858826967    
     2.297921675073737        0.1083182084225284    
     2.305684923976013        0.1070658666527494    
     2.313448172878289        0.1058271892168865    
     2.321211421780565        0.1046020070298707    
     2.328974670682842        0.1033901532445574    
     2.336737919585118        0.1021914632187410    
     2.344501168487394        0.1010057744827041    
     2.352264417389670        0.9983292670726028E-01
     2.360027666291946        0.9867276167228203E-01
     2.367790915194222        0.9752512323568938E-01
     2.375554164096498        0.9638985730295545E-01
     2.383317412998775        0.9526681179705615E-01
     2.391080661901051        0.9415583662887507E-01
     2.398843910803327        0.9305678366806221E-01
     2.406607159705603        0.9196950671435938E-01
     2.414370408607879        0.9089386146935184E-01
     2.422133657510155        0.8982970550863140E-01
     2.429896906412432        0.8877689825441980E-01
     2.437660155314707        0.8773530094859738E-01
     2.445423404216984        0.8670477662614638E-01
     2.453186653119260        0.8568519008897706E-01
     2.460949902021536        0.8467640788019640E-01
     2.468713150923812        0.8367829825874565E-01
     2.476476399826088        0.8269073117442895E-01
     2.484239648728364        0.8171357824330992E-01
     2.492002897630640        0.8074671272351851E-01
     2.499766146532917        0.7979000949140534E-01
     2.507529395435193        0.7884334501805754E-01
     2.515292644337469        0.7790659734617669E-01
     2.523055893239745        0.7697964606732556E-01
     2.530819142142021        0.7606237229951163E-01
     2.538582391044297        0.7515465866510102E-01
     2.546345639946574        0.7425638926908677E-01
     2.554108888848849        0.7336744967769089E-01
     2.561872137751126        0.7248772689728995E-01
     2.569635386653402        0.7161710935364549E-01
     2.577398635555678        0.7075548687147593E-01
     2.585161884457954        0.6990275065433428E-01
     2.592925133360230        0.6905879326479375E-01
     2.600688382262506        0.6822350860491702E-01
     2.608451631164783        0.6739679189705125E-01
     2.616214880067059        0.6657853966490554E-01
     2.623978128969335        0.6576864971492065E-01
     2.631741377871611        0.6496702111790328E-01
     2.639504626773887        0.6417355419096779E-01
     2.647267875676163        0.6338815047974308E-01
     2.655031124578439        0.6261071274085228E-01
     2.662794373480716        0.6184114492464463E-01
     2.670557622382992        0.6107935215821114E-01
     2.678320871285268        0.6032524072865324E-01
     2.686084120187544        0.5957871806660599E-01
     2.693847369089820        0.5883969273000000E-01
     2.701610617992096        0.5810807438808399E-01
     2.709373866894373        0.5738377380569315E-01
     2.717137115796648        0.5666670282774884E-01
     2.724900364698925        0.5595677436399097E-01
     2.732663613601201        0.5525390237394439E-01
     2.740426862503477        0.5455800185212344E-01
     2.748190111405753        0.5386898881345114E-01
     2.755953360308029        0.5318678027890207E-01
     2.763716609210305        0.5251129426135100E-01
     2.771479858112582        0.5184244975166018E-01
     2.779243107014858        0.5118016670495917E-01
     2.787006355917134        0.5052436602714035E-01
     2.794769604819410        0.4987496956153992E-01
     2.802532853721686        0.4923190007584797E-01
     2.810296102623962        0.4859508124919918E-01
     2.818059351526238        0.4796443765946357E-01
     2.825822600428515        0.4733989477071494E-01
     2.833585849330791        0.4672137892090655E-01
     2.841349098233067        0.4610881730972351E-01
     2.849112347135343        0.4550213798661823E-01
     2.856875596037619        0.4490126983902280E-01
     2.864638844939895        0.4430614258073310E-01
     2.872402093842171        0.4371668674048224E-01
     2.880165342744447        0.4313283365067241E-01
     2.887928591646724        0.4255451543627944E-01
     2.895691840549000        0.4198166500391016E-01
     2.903455089451276        0.4141421603104341E-01
     2.911218338353552        0.4085210295541773E-01
     2.918981587255828        0.4029526096458057E-01
     2.926744836158104        0.3974362598558662E-01
     2.934508085060381        0.3919713467485156E-01
     2.942271333962656        0.3865572440816173E-01
     2.950034582864933        0.3811933327082454E-01
     2.957797831767209        0.3758790004796687E-01
     2.965561080669485        0.3706136421496508E-01
     2.973324329571761        0.3653966592803509E-01
     2.981087578474037        0.3602274601494614E-01
     2.988850827376313        0.3551054596587638E-01
     2.996614076278589        0.3500300792439667E-01
     3.004377325180866        0.3450007467858651E-01
     3.012140574083142        0.3400168965228691E-01
     3.019903822985418        0.3350779689647288E-01
     3.027667071887694        0.3301834108075492E-01
     3.035430320789970        0.3253326748499340E-01
     3.043193569692246        0.3205252199104869E-01
     3.050956818594523        0.3157605107464198E-01
     3.058720067496798        0.3110380179733469E-01
     3.066483316399075        0.3063572179862332E-01
     3.074246565301351        0.3017175928813990E-01
     3.082009814203627        0.2971186303797856E-01
     3.089773063105903        0.2925598237512058E-01
     3.097536312008179        0.2880406717397182E-01
     3.105299560910455        0.2835606784900161E-01
     3.113062809812732        0.2791193534748722E-01
     3.120826058715008        0.2747162114236649E-01
     3.128589307617284        0.2703507722518454E-01
     3.136352556519560        0.2660225609914390E-01
     3.144115805421836        0.2617311077224582E-01
     3.151879054324112        0.2574759475053362E-01
     3.159642303226388        0.2532566203143016E-01
     3.167405552128665        0.2490726709716526E-01
     3.175168801030941        0.2449236490829722E-01
     3.182932049933217        0.2408091089731723E-01
     3.190695298835493        0.2367286096235106E-01
     3.198458547737769        0.2326817146094381E-01
     3.206221796640045        0.2286679920392902E-01
     3.213985045542322        0.2246870144938456E-01
     3.221748294444597        0.2207383589666398E-01
     3.229511543346874        0.2168216068051879E-01
     3.237274792249150        0.2129363436529623E-01
     3.245038041151426        0.2090821593921445E-01
     3.252801290053702        0.2052586480871817E-01
     3.260564538955978        0.2014654079290423E-01
     3.268327787858254        0.1977020411803020E-01
     3.276091036760531        0.1939681541209202E-01
     3.283854285662807        0.1902633569947442E-01
     3.291617534565083        0.1865872639567438E-01
     3.299380783467359        0.1829394930208920E-01
     3.307144032369635        0.1793196660088079E-01
     3.314907281271911        0.1757274084990463E-01
     3.322670530174187        0.1721623497770434E-01
     3.330433779076464        0.1686241227857468E-01
     3.338197027978740        0.1651123640768333E-01
     3.345960276881016        0.1616267137626385E-01
     3.353723525783292        0.1581668154686643E-01
     3.361486774685568        0.1547323162867130E-01
     3.369250023587844        0.1513228667286386E-01
     3.377013272490121        0.1479381206806464E-01
     3.384776521392396        0.1445777353582389E-01
     3.392539770294673        0.1412413712617071E-01
     3.400303019196949        0.1379286921321932E-01
     3.408066268099225        0.1346393649083157E-01
     3.415829517001501        0.1313730596833220E-01
     3.423592765903777        0.1281294496628080E-01
     3.431356014806053        0.1249082111229604E-01
     3.439119263708330        0.1217090233693215E-01
     3.446882512610606        0.1185315686960677E-01
     3.454645761512882        0.1153755323457951E-01
     3.462409010415158        0.1122406024697868E-01
     3.470172259317434        0.1091264700888040E-01
     3.477935508219710        0.1060328290543431E-01
     3.485698757121986        0.1029593760103573E-01
     3.493462006024262        0.9990581035546882E-02
     3.501225254926538        0.9687183420560257E-02
     3.508988503828815        0.9385715235712222E-02
     3.516751752731091        0.9086147226363445E-02
     3.524515001633367        0.8788450475793599E-02
     3.532278250535643        0.8492597325374414E-02
     3.540041499437919        0.8198565439687437E-02
     3.547804748340195        0.7906346720077610E-02
     3.555567997242472        0.7615959374642428E-02
     3.563331246144747        0.7327459443095292E-02
     3.571094495047024        0.7040948869324421E-02
     3.578857743949300        0.6756579024628506E-02
     3.586620992851576        0.6474549976658256E-02
     3.594384241753852        0.6195106464371923E-02
     3.602147490656128        0.5918531679574470E-02
     3.609910739558404        0.5645139829246422E-02
     3.617673988460681        0.5375268234762497E-02
     3.625437237362957        0.5109269504617066E-02
     3.633200486265233        0.4847504132740304E-02
     3.640963735167509        0.4590333733260188E-02
     3.648726984069785        0.4338115020864987E-02
     3.656490232972061        0.4091194576082124E-02
     3.664253481874337        0.3849904388907768E-02
     3.672016730776614        0.3614558145594444E-02
     3.679779979678890        0.3385448206789861E-02
     3.687543228581166        0.3162843216732072E-02
     3.695306477483442        0.2946986280073404E-02
     3.703069726385718        0.2738093643160638E-02
     3.710832975287994        0.2536353818904659E-02
     3.718596224190271        0.2341927097800383E-02
     3.726359473092546        0.2154945391587876E-02
     3.734122721994823        0.1975512360037945E-02
     3.741885970897099        0.1803703775101748E-02
     3.749649219799375        0.1639568079918040E-02
     3.757412468701651        0.1483127102689447E-02
     3.765175717603927        0.1334376886905465E-02
     3.772938966506203        0.1193288599363822E-02
     3.780702215408480        0.1059809475180185E-02
     3.788465464310756        0.9338637532049286E-03
     3.796228713213032        0.8153535436412541E-03
     3.803991962115308        0.7041595477475493E-03
     3.811755211017584        0.6001415084393370E-03
     3.819518459919860        0.5031381916697910E-03
     3.827281708822136        0.4129665393318497E-03
     3.835044957724413        0.3294192909441277E-03
     3.842808206626689        0.2522595583974050E-03
     3.850571455528965        0.1812086570461430E-03
     3.858334704431241        0.1159165018439152E-03
     3.866097953333517        0.5587414135323711E-04
     3.873861202235793         0.000000000000000    
  0  1  2  0  0.000000   #orbital l, n, z, is_polarized, population
 500    0.4658466710728045E-02     2.324574888653295     # npts, delta, cutoff
     0.000000000000000         3.807126440016061    
    0.4658466710728045E-02     3.806935766746250    
    0.9316933421456090E-02     3.806405755017634    
    0.1397540013218413E-01     3.805522616732980    
    0.1863386684291218E-01     3.804286636041397    
    0.2329233355364023E-01     3.802698219571473    
    0.2795080026436827E-01     3.800757891200310    
    0.3260926697509631E-01     3.798466291063144    
    0.3726773368582436E-01     3.795824175040180    
    0.4192620039655241E-01     3.792832414302442    
    0.4658466710728045E-01     3.789491994833280    
    0.5124313381800850E-01     3.785804016902849    
    0.5590160052873654E-01     3.781769694488192    
    0.6056006723946458E-01     3.777390354636281    
    0.6521853395019263E-01     3.772667436768969    
    0.6987700066092067E-01     3.767602491929648    
    0.7453546737164872E-01     3.762197181971563    
    0.7919393408237677E-01     3.756453278688074    
    0.8385240079310481E-01     3.750372662885092    
    0.8851086750383286E-01     3.743957323396096    
    0.9316933421456090E-01     3.737209356040179    
    0.9782780092528895E-01     3.730130962523490    
    0.1024862676360170         3.722724449284686    
    0.1071447343467450         3.714992226284850    
    0.1118032010574731         3.706936805742471    
    0.1164616677682011         3.698560800814163    
    0.1211201344789292         3.689866924221610    
    0.1257786011896572         3.680857986825586    
    0.1304370679003853         3.671536896147697    