<preamble>

<basis_specs>
===============================================================================
K                    Z=  19    Mass=  39.098        Charge= 0.17977+309
Lmxo=1 Lmxkb= 2    BasisType=split      Semic=T
L=0  Nsemic=1  Cnfigmx=4
          i=1  nzeta=1  polorb=0  (3s)  (semicore shell)
            splnorm:   0.15000    
               vcte:    40.000    
               rinn:    3.2961    
               qcoe:    0.0000    
               qyuk:    0.0000    
               qwid:   0.10000E-01
                rcs:    3.6623    
            lambdas:    1.0000    
          i=2  nzeta=2  polorb=0  (4s)  (to be polarized non-perturbatively)
            splnorm:   0.15000    
               vcte:    40.000    
               rinn:    9.7040    
               qcoe:    0.0000    
               qyuk:    0.0000    
               qwid:   0.10000E-01
                rcs:    10.782      8.1222    
            lambdas:    1.0000      1.0000    
L=1  Nsemic=1  Cnfigmx=4
          i=1  nzeta=1  polorb=0  (3p)  (semicore shell)
            splnorm:   0.15000    
               vcte:    40.000    
               rinn:    3.8773    
               qcoe:    0.0000    
               qyuk:    0.0000    
               qwid:   0.10000E-01
                rcs:    4.3082    
            lambdas:    1.0000    
          i=2  nzeta=1  polorb=0  (4p)  (non-perturbative polarization shell)
            splnorm:   0.15000    
               vcte:    40.000    
               rinn:    9.7138    
               qcoe:    0.0000    
               qyuk:    0.0000    
               qwid:   0.10000E-01
                rcs:    10.782    
            lambdas:    1.0000    
-------------------------------------------------------------------------------
L=0  Nkbl=2  erefs: 0.17977+309 0.17977+309
L=1  Nkbl=2  erefs: 0.17977+309 0.17977+309
L=2  Nkbl=1  erefs: 0.17977+309
===============================================================================
</basis_specs>

<pseudopotential_header>
 K  pb nrl pcec
 ONCVPSP-3.2017-10-31Hamann's oncvpsp                        
 3s 2.00  r= 1.36/3p 6.00  r= 1.46/3d 0.00  r= 1.61/                    3s:3p:4s:
</pseudopotential_header>
</preamble>
K                             # Symbol
K                             # Label
   19                         # Atomic number
     9.00000000000                             # Valence charge
     39.0980000000        # Mass 
     113.507267461        # Self energy 
   1   5                      # Lmax for basis, no. of nl orbitals 
   2   6                      # Lmax for projectors, no. of nl KB projectors
# PAOs:__________________________
  0  3  1  0  2.000000   #orbital l, n, z, is_polarized, population
 500    0.7339364258677892E-02     3.662342765080268     # npts, delta, cutoff
     0.000000000000000        0.1696652727550212    
    0.7339364258677892E-02    0.1698543370970383    
    0.1467872851735578E-01    0.1704289650332554    
    0.2201809277603367E-01    0.1713860623611661    
    0.2935745703471157E-01    0.1727247015862214    
    0.3669682129338946E-01    0.1744435866106238    
    0.4403618555206735E-01    0.1765410535097056    
    0.5137554981074524E-01    0.1790150721907761    
    0.5871491406942313E-01    0.1818632485010215    
    0.6605427832810103E-01    0.1850828267363389    
    0.7339364258677891E-01    0.1886706925414634    
    0.8073300684545681E-01    0.1926233761987014    
    0.8807237110413470E-01    0.1969370563042239    
    0.9541173536281260E-01    0.2016075638312918    
    0.1027510996214905        0.2066303865798124    
    0.1100904638801684        0.2120006740114783    
    0.1174298281388463        0.2177132424695339    
    0.1247691923975242        0.2237625807819190    
    0.1321085566562021        0.2301428562461927    
    0.1394479209148800        0.2368479209942377    
    0.1467872851735578        0.2438713187342989    
    0.1541266494322357        0.2512062918673882    
    0.1614660136909136        0.2588457889745343    
    0.1688053779495915        0.2667824726707433    
    0.1761447422082694        0.2750087278208754    
    0.1834841064669473        0.2835166701119279    
    0.1908234707256252        0.2922981549754691    
    0.1981628349843031        0.3013447868531730    
    0.2055021992429810        0.3106479287975732    
    0.2128415635016589        0.3201987123992896    
    0.2201809277603368        0.3299880480310942    
    0.2275202920190146        0.3400066353982624    
    0.2348596562776925        0.3502449743837342    
    0.2421990205363704        0.3606933761756358    
    0.2495383847950483        0.3713419746638038    
    0.2568777490537262        0.3821807380909418    
    0.2642171133124041        0.3931994809431446    
    0.2715564775710820        0.4043878760635534    
    0.2788958418297599        0.4157354669719914    
    0.2862352060884378        0.4272316803725360    
    0.2935745703471156        0.4388658388301210    
    0.3009139346057936        0.4506271735964172    
    0.3082532988644714        0.4625048375644668    
    0.3155926631231493        0.4744879183308049    
    0.3229320273818272        0.4865654513431147    
    0.3302713916405051        0.4987264331108444    
    0.3376107558991830        0.5109598344556447    
    0.3449501201578609        0.5232546137780159    
    0.3522894844165388        0.5355997303161385    
    0.3596288486752167        0.5479841573725004    
    0.3669682129338946        0.5603968954837401    
    0.3743075771925725        0.5728269855089079    
    0.3816469414512504        0.5852635216112971    
    0.3889863057099283        0.5976956641090292    
    0.3963256699686061        0.6101126521696606    
    0.4036650342272841        0.6225038163243032    
    0.4110043984859619        0.6348585907770352    
    0.4183437627446398        0.6471665254858061    
    0.4256831270033177        0.6594172979914863    
    0.4330224912619956        0.6716007249723176    
    0.4403618555206735        0.6837067735016866    
    0.4477012197793514        0.6957255719879519    
    0.4550405840380293        0.7076474207757725    
    0.4623799482967072        0.7194628023895013    
    0.4697193125553851        0.7311623914000499    
    0.4770586768140629        0.7427370638978081    
    0.4843980410727409        0.7541779065553126    
    0.4917374053314187        0.7654762252645947    
    0.4990767695900966        0.7766235533353595    
    0.5064161338487745        0.7876116592415857    
    0.5137554981074525        0.7984325539053089    
    0.5210948623661303        0.8090784975079658    
    0.5284342266248082        0.8195420058209374    
    0.5357735908834861        0.8298158560485539    
    0.5431129551421640        0.8398930921780543    
    0.5504523194008418        0.8497670298327956    
    0.5577916836595198        0.8594312606261824    
    0.5651310479181977        0.8688796560154695    
    0.5724704121768756        0.8781063706559721    
    0.5798097764355534        0.8871058452576112    
    0.5871491406942313        0.8958728089472744    
    0.5944885049529093        0.9044022811417205    
    0.6018278692115872        0.9126895729370972    
    0.6091672334702650        0.9207302880225295    
    0.6165065977289429        0.9285203231263588    
    0.6238459619876208        0.9360558680048344    
    0.6311853262462986        0.9433334049841532    
    0.6385246905049766        0.9503497080677946    
    0.6458640547636545        0.9571018416220032    
    0.6532034190223324        0.9635871586532583    
    0.6605427832810102        0.9698032986922421    
    0.6678821475396881        0.9757481852996501    
    0.6752215117983661        0.9814200232097191    
    0.6825608760570440        0.9868172951279867    
    0.6899002403157218        0.9919387582001579    
    0.6972396045743997        0.9967834401693804    
    0.7045789688330776         1.001350635239482    
    0.7119183330917555         1.005639899661919    
    0.7192576973504334         1.009651047064247    
    0.7265970616091113         1.013384143538008    
    0.7339364258677892         1.016839502503792    
    0.7412757901264670         1.020017679371121    
    0.7486151543851449         1.022919466010560    
    0.7559545186438229         1.025545885055176    
    0.7632938829025008         1.027898184048081    
    0.7706332471611786         1.029977829452375    
    0.7779726114198565         1.031786500539332    
    0.7853119756785344         1.033326083170093    
    0.7926513399372123         1.034598663485553    
    0.7999907041958902         1.035606521518528    
    0.8073300684545681         1.036352124741569    
    0.8146694327132460         1.036838121563116    
    0.8220087969719239         1.037067334783965    
    0.8293481612306017         1.037042755025267    
    0.8366875254892796         1.036767534138527    
    0.8440268897479576         1.036244978607327    
    0.8513662540066355         1.035478542949702    
    0.8587056182653133         1.034471823129395    
    0.8660449825239912         1.033228549983445    
    0.8733843467826691         1.031752582672822    
    0.8807237110413471         1.030047902162172    
    0.8880630753000249         1.028118604734030    
    0.8954024395587028         1.025968895542203    
    0.9027418038173807         1.023603082208457    
    0.9100811680760585         1.021025568466046    
    0.9174205323347364         1.018240847853126    
    0.9247598965934144         1.015253497458584    
    0.9320992608520923         1.012068171722403    
    0.9394386251107701         1.008689596292333    
    0.9467779893694480         1.005122561938261    
    0.9541173536281259         1.001371918522552    
    0.9614567178868039        0.9974425708762107    
    0.9687960821454817        0.9933394681721011    
    0.9761354464041596        0.9890676011698128    
    0.9834748106628375        0.9846319970547278    
    0.9908141749215154        0.9800377128840629    
    0.9981535391801932        0.9752898299285961    
     1.005492903438871        0.9703934480780300    
     1.012832267697549        0.9653536803108207    
     1.020171631956227        0.9601756472294277    
     1.027510996214905        0.9548644716622009    
     1.034850360473583        0.9494252733333706    
     1.042189724732261        0.9438631636027992    
     1.049529088990939        0.9381832402774928    
     1.056868453249616        0.9323905824972590    
     1.064207817508294        0.9264902456971059    
     1.071547181766972        0.9204872566493749    
     1.078886546025650        0.9143866085889845    
     1.086225910284328        0.9081932564255247    
     1.093565274543006        0.9019121120462024    
     1.100904638801684        0.8955480397140516    
     1.108244003060362        0.8891058515662379    
     1.115583367319040        0.8825903032174428    
     1.122922731577717        0.8760060894737363    
     1.130262095836395        0.8693578401625529    
     1.137601460095073        0.8626501160846595    
     1.144940824353751        0.8558874050942464    
     1.152280188612429        0.8490741183133870    
     1.159619552871107        0.8422145864873610    
     1.166958917129785        0.8353130564872618    
     1.174298281388463        0.8283736879665683    
     1.181637645647140        0.8214005501780846    
     1.188977009905819        0.8143976189580754    
     1.196316374164496        0.8073687738837402    
     1.203655738423174        0.8003177956106804    
     1.210995102681852        0.7932483633961683    
     1.218334466940530        0.7861640528143702    
     1.225673831199208        0.7790683336688778    
     1.233013195457886        0.7719645681082120    
     1.240352559716564        0.7648560089487844    
     1.247691923975242        0.7577457982100851    
     1.255031288233919        0.7506369658658163    
     1.262370652492597        0.7435324288148584    
     1.269710016751275        0.7364349900745557    
     1.277049381009953        0.7293473381991247    
     1.284388745268631        0.7222720469244633    
     1.291728109527309        0.7152115750409636    
     1.299067473785987        0.7081682664942046    
     1.306406838044665        0.7011443507139709    
     1.313746202303343        0.6941419431698915    
     1.321085566562020        0.6871630461289524    
     1.328424930820698        0.6802095495886131    
     1.335764295079376        0.6732832328311035    
     1.343103659338054        0.6663857662498326    
     1.350443023596732        0.6595187115379895    
     1.357782387855410        0.6526835221674544    
     1.365121752114088        0.6458815488221520    
     1.372461116372766        0.6391140496967322    
     1.379800480631444        0.6323822026808160    
     1.387139844890122        0.6256871180198946    
     1.394479209148799        0.6190298476986814    
     1.401818573407477        0.6124113872503795    
     1.409157937666155        0.6058326750631713    
     1.416497301924833        0.5992945938862158    
     1.423836666183511        0.5927979734171654    
     1.431176030442189        0.5863435923868550    
     1.438515394700867        0.5799321802573260    
     1.445854758959545        0.5735644189919784    
     1.453194123218223        0.5672409447597662    
     1.460533487476900        0.5609623495388005    
     1.467872851735578        0.5547291828054178    
     1.475212215994256        0.5485419530611599    
     1.482551580252934        0.5424011293262642    
     1.489890944511612        0.5363071426038772    
     1.497230308770290        0.5302603874338251    
     1.504569673028968        0.5242612231167352    
     1.511909037287646        0.5183099751056767    
     1.519248401546324        0.5124069363171571    
     1.526587765805002        0.5065523683812724    
     1.533927130063679        0.5007465027912495    
     1.541266494322357        0.4949895421450858    
     1.548605858581035        0.4892816612949907    
     1.555945222839713        0.4836230084214050    
     1.563284587098391        0.4780137061004434    
     1.570623951357069        0.4724538523350695    
     1.577963315615747        0.4669435215635648    
     1.585302679874425        0.4614827656228811    
     1.592642044133102        0.4560716146824639    
     1.599981408391780        0.4507100781486851    
     1.607320772650458        0.4453981455395277    
     1.614660136909136        0.4401357873302133    
     1.621999501167814        0.4349229557705426    
     1.629338865426492        0.4297595856749990    
     1.636678229685170        0.4246455951863486    
     1.644017593943848        0.4195808865136249    
     1.651356958202526        0.4145653466450491    
     1.658696322461203        0.4095988480368289    
     1.666035686719881        0.4046812492785226    
     1.673375050978559        0.3998123957354970    
     1.680714415237237        0.3949921201694794    
     1.688053779495915        0.3902202433376211    
     1.695393143754593        0.3854965745707478    
     1.702732508013271        0.3808209123317018    
     1.710071872271949        0.3761930447539778    
     1.717411236530627        0.3716127501615355    
     1.724750600789305        0.3670797975704858    
     1.732089965047982        0.3625939471727511    
     1.739429329306660        0.3581549508027481    
     1.746768693565338        0.3537625523874894    
     1.754108057824016        0.3494164883803450    
     1.761447422082694        0.3451164881794470    
     1.768786786341372        0.3408622745309248    
     1.776126150600050        0.3366535639173961    
     1.783465514858728        0.3324900669325199    
     1.790804879117406        0.3283714886417383    
     1.798144243376083        0.3242975289297020    
     1.805483607634761        0.3202678828350772    
     1.812822971893439        0.3162822408727783    
     1.820162336152117        0.3123402893441934    
     1.827501700410795        0.3084417106359807    
     1.834841064669473        0.3045861835074515    
     1.842180428928151        0.3007733833671302    
     1.849519793186829        0.2970029825389494    
     1.856859157445507        0.2932746505181341    
     1.864198521704185        0.2895880542173075    
     1.871537885962862        0.2859428582032137    
     1.878877250221540        0.2823387249241441    
     1.886216614480218        0.2787753149285317    
     1.893555978738896        0.2752522870750456    
     1.900895342997574        0.2717692987343304    
     1.908234707256252        0.2683260059827630    
     1.915574071514930        0.2649220637885188    
     1.922913435773608        0.2615571261901336    
     1.930252800032286        0.2582308464678592    
     1.937592164290963        0.2549428773080588    
     1.944931528549641        0.2516928709608677    
     1.952270892808319        0.2484804793913638    
     1.959610257066997        0.2453053544244463    
     1.966949621325675        0.2421671478836504    
     1.974288985584353        0.2390655117241403    
     1.981628349843031        0.2360000981600177    
     1.988967714101709        0.2329705597861508    
     1.996307078360386        0.2299765496948118    
     2.003646442619064        0.2270177215871810    
     2.010985806877742        0.2240937298798902    
     2.018325171136420        0.2212042298069315    
     2.025664535395098        0.2183488775169487    
     2.033003899653776        0.2155273301660474    
     2.040343263912454        0.2127392460064359    
     2.047682628171132        0.2099842844709379    
     2.055021992429810        0.2072621062534878    
     2.062361356688488        0.2045723733858080    
     2.069700720947166        0.2019147493104518    
     2.077040085205843        0.1992888989502377    
     2.084379449464521        0.1966944887741713    
     2.091718813723199        0.1941311868601897    
     2.099058177981877        0.1915986629546266    
     2.106397542240555        0.1890965885285414    
     2.113736906499233        0.1866246368311499    
     2.121076270757911        0.1841824829403580    
     2.128415635016589        0.1817698038105014    
     2.135754999275266        0.1793862783173861    
     2.143094363533944        0.1770315873008259    
     2.150433727792622        0.1747054136046398    
     2.157773092051300        0.1724074421142199    
     2.165112456309978        0.1701373597918465    
     2.172451820568656        0.1678948557097473    
     2.179791184827334        0.1656796210809899    
     2.187130549086012        0.1634913492882970    
     2.194469913344689        0.1613297359108932    
     2.201809277603367        0.1591944787493987    
     2.209148641862046        0.1570852778488518    
     2.216488006120723        0.1550018355199654    
     2.223827370379401        0.1529438563586444    
     2.231166734638079        0.1509110472638368    
     2.238506098896757        0.1489031174537775    
     2.245845463155435        0.1469197784806974    
     2.253184827414113        0.1449607442440373    
     2.260524191672791        0.1430257310022272    
     2.267863555931469        0.1411144573830852    
     2.275202920190146        0.1392266443928900    
     2.282542284448824        0.1373620154241695    
     2.289881648707502        0.1355202962622597    
     2.297221012966180        0.1337012150906778    
     2.304560377224858        0.1319045024953533    
     2.311899741483536        0.1301298914677634    
     2.319239105742214        0.1283771174070115    
     2.326578470000892        0.1266459181208940    
     2.333917834259569        0.1249360338259917    
     2.341257198518247        0.1232472071468211    
     2.348596562776925        0.1215791831140881    
     2.355935927035603        0.1199317091620804    
     2.363275291294281        0.1183045351252291    
     2.370614655552959        0.1166974132338708    
     2.377954019811637        0.1151100981092495    
     2.385293384070315        0.1135423467577908    
     2.392632748328993        0.1119939185646738    
     2.399972112587671        0.1104645752867215    
     2.407311476846349        0.1089540810446620    
     2.414650841105026        0.1074622023147716    
     2.421990205363704        0.1059887079199302    
     2.429329569622382        0.1045333690201054    
     2.436668933881060        0.1030959591023136    
     2.444008298139738        0.1016762539700659    
     2.451347662398416        0.1002740317323274    
     2.458687026657094        0.9888907279199913E-01
     2.466026390915772        0.9752115983397569E-01
     2.473365755174449        0.9617007781277317E-01
     2.480705119433127        0.9483561393976137E-01
     2.488044483691805        0.9351755767000663E-01
     2.495383847950483        0.9221570068876803E-01
     2.502723212209161        0.9092983689764787E-01
     2.510062576467839        0.8965976240041894E-01
     2.517401940726517        0.8840527548855055E-01
     2.524741304985195        0.8716617662644648E-01
     2.532080669243872        0.8594226843641307E-01
     2.539420033502551        0.8473335568337306E-01
     2.546759397761229        0.8353924525935019E-01
     2.554098762019906        0.8235974616771982E-01
     2.561438126278584        0.8119466950725741E-01
     2.568777490537262        0.8004382845598960E-01
     2.576116854795940        0.7890703825487858E-01
     2.583456219054618        0.7778411619133178E-01
     2.590795583313296        0.7667488158254961E-01
     2.598134947571974        0.7557915575874245E-01
     2.605474311830652        0.7449676204622151E-01
     2.612813676089329        0.7342752575037870E-01
     2.620153040348007        0.7237127413853493E-01
     2.627492404606685        0.7132783642271351E-01
     2.634831768865363        0.7029704374232155E-01
     2.642171133124041        0.6927872914678300E-01
     2.649510497382719        0.6827272757805986E-01
     2.656849861641397        0.6727887585314825E-01
     2.664189225900075        0.6629701264651501E-01
     2.671528590158752        0.6532697847252562E-01
     2.678867954417430        0.6436861566780179E-01
     2.686207318676108        0.6342176837357771E-01
     2.693546682934786        0.6248628251803714E-01
     2.700886047193464        0.6156200579866047E-01
     2.708225411452142        0.6064878766455843E-01
     2.715564775710820        0.5974647929878418E-01
     2.722904139969498        0.5885493360067454E-01
     2.730243504228176        0.5797400516811629E-01
     2.737582868486854        0.5710355028035467E-01
     2.744922232745532        0.5624342688001800E-01
     2.752261597004209        0.5539349455572304E-01
     2.759600961262887        0.5455361452494305E-01
     2.766940325521565        0.5372364961560652E-01
     2.774279689780243        0.5290346424917639E-01
     2.781619054038921        0.5209292442361757E-01
     2.788958418297599        0.5129189769594208E-01
     2.796297782556277        0.5050025316515776E-01
     2.803637146814955        0.4971786145454065E-01
     2.810976511073632        0.4894459469502798E-01
     2.818315875332310        0.4818032650794185E-01
     2.825655239590988        0.4742493198624834E-01
     2.832994603849666        0.4667828768184804E-01
     2.840333968108344        0.4594027158764668E-01
     2.847673332367022        0.4521076311854724E-01
     2.855012696625700        0.4448964309631857E-01
     2.862352060884378        0.4377679374018579E-01
     2.869691425143056        0.4307209862615544E-01
     2.877030789401734        0.4237544269585234E-01
     2.884370153660412        0.4168671223318671E-01
     2.891709517919089        0.4100579484754612E-01
     2.899048882177767        0.4033257945710705E-01
     2.906388246436445        0.3966695627246193E-01
     2.913727610695123        0.3900881678102752E-01
     2.921066974953801        0.3835805373134646E-01
     2.928406339212479        0.3771456111750683E-01
     2.935745703471157        0.3707823416376699E-01
     2.943085067729835        0.3644896930914300E-01
     2.950424431988512        0.3582666419198809E-01
     2.957763796247190        0.3521121763474953E-01
     2.965103160505868        0.3460252962883043E-01
     2.972442524764546        0.3400050131953986E-01
     2.979781889023224        0.3340503499118185E-01
     2.987121253281902        0.3281603405225526E-01
     2.994460617540580        0.3223340302075070E-01
     3.001799981799258        0.3165704750955740E-01
     3.009139346057935        0.3108687421197531E-01
     3.016478710316613        0.3052279088734173E-01
     3.023818074575292        0.2996470634676536E-01
     3.031157438833969        0.2941253043896986E-01
     3.038496803092647        0.2886617403624829E-01
     3.045836167351325        0.2832554902052729E-01
     3.053175531610003        0.2779056826954364E-01
     3.060514895868681        0.2726114564313248E-01
     3.067854260127359        0.2673719596962612E-01
     3.075193624386037        0.2621863503236551E-01
     3.082532988644715        0.2570537955632396E-01
     3.089872352903392        0.2519734719484521E-01
     3.097211717162070        0.2469445651649396E-01
     3.104551081420748        0.2419662699202050E-01
     3.111890445679426        0.2370377898143974E-01
     3.119229809938104        0.2321583372122677E-01
     3.126569174196782        0.2273271331162535E-01
     3.133908538455460        0.2225434070407499E-01
     3.141247902714138        0.2178063968875346E-01
     3.148587266972815        0.2131153488223636E-01
     3.155926631231493        0.2084695171527842E-01
     3.163265995490171        0.2038681642070788E-01
     3.170605359748849        0.1993105602144484E-01
     3.177944724007527        0.1947959831863702E-01
     3.185284088266205        0.1903237187991783E-01
     3.192623452524883        0.1858930602778860E-01
     3.199962816783561        0.1815033082811888E-01
     3.207302181042239        0.1771537707877142E-01
     3.214641545300917        0.1728437629835225E-01
     3.221980909559595        0.1685726071508322E-01
     3.229320273818272        0.1643396325580538E-01
     3.236659638076950        0.1601441753510384E-01
     3.243999002335628        0.1559855784455827E-01
     3.251338366594306        0.1518631914212485E-01
     3.258677730852984        0.1477763704164355E-01
     3.266017095111662        0.1437244780247687E-01
     3.273356459370340        0.1397068831927893E-01
     3.280695823629018        0.1357229611188678E-01
     3.288035187887695        0.1317720931534917E-01
     3.295374552146373        0.1278536667008198E-01
     3.302713916405051        0.1239670751215460E-01
     3.310053280663729        0.1201117176371366E-01
     3.317392644922407        0.1162869992359058E-01
     3.324732009181085        0.1124923307055751E-01
     3.332071373439763        0.1087271318166560E-01
     3.339410737698441        0.1049908552008168E-01
     3.346750101957118        0.1012830607050634E-01
     3.354089466215797        0.9760354351847531E-02
     3.361428830474475        0.9395248041316740E-02
     3.368768194733152        0.9033055115040805E-02
     3.376107558991830        0.8673901021130777E-02
     3.383446923250508        0.8317970453240361E-02
     3.390786287509186        0.7965504544711590E-02
     3.398125651767864        0.7616794764760442E-02
     3.405465016026542        0.7272174782626318E-02
     3.412804380285220        0.6932011343115255E-02
     3.420143744543898        0.6596694926189328E-02
     3.427483108802575        0.6266630717538799E-02
     3.434822473061253        0.5942230220974536E-02
     3.442161837319931        0.5623903698393924E-02
     3.449501201578609        0.5312053521284331E-02
     3.456840565837287        0.5007068449528206E-02
     3.464179930095965        0.4709318809715349E-02
     3.471519294354643        0.4419152518998649E-02
     3.478858658613321        0.4136891886266842E-02
     3.486198022871998        0.3862831116077452E-02
     3.493537387130676        0.3597234439553225E-02
     3.500876751389354        0.3340334798343421E-02
     3.508216115648032        0.3092333011461381E-02
     3.515555479906710        0.2853397359395360E-02
     3.522894844165388        0.2623663524755301E-02
     3.530234208424066        0.2403234833416059E-02
     3.537573572682744        0.2192182744322913E-02
     3.544912936941422        0.1990547539545571E-02
     3.552252301200100        0.1798339168475176E-02
     3.559591665458778        0.1615538200797714E-02
     3.566931029717455        0.1442096841350456E-02
     3.574270393976133        0.1277939954954313E-02
     3.581609758234811        0.1122966038669481E-02
     3.588949122493489        0.9770480586397063E-03
     3.596288486752167        0.8400340309822950E-03
     3.603627851010845        0.7117471550796764E-03
     3.610967215269523        0.5919851683658629E-03
     3.618306579528201        0.4805183024405299E-03
     3.625645943786878        0.3770845696521393E-03
     3.632985308045556        0.2813794797960339E-03
     3.640324672304234        0.1930325535155961E-03
     3.647664036562912        0.1115465113835515E-03
     3.655003400821590        0.3607948030303415E-04
     3.662342765080268         0.000000000000000    
  0  4  1  0  1.000000   #orbital l, n, z, is_polarized, population
 500    0.2160774852280485E-01     10.78226651287962     # npts, delta, cutoff
     0.000000000000000        0.4770530577281983E-01
    0.2160774852280485E-01    0.4816220410767631E-01
    0.4321549704560970E-01    0.4953050674683443E-01
    0.6482324556841454E-01    0.5179595322194145E-01
    0.8643099409121939E-01    0.5493618161804452E-01
    0.1080387426140242        0.5892031768692025E-01
    0.1296464911368291        0.6370937190430587E-01
    0.1512542396596339        0.6925671450510744E-01
    0.1728619881824388        0.7550861807868244E-01
    0.1944697367052436        0.8240486200778345E-01