<preamble>

<basis_specs>
===============================================================================
Nb                   Z=  41    Mass=  92.906        Charge= 0.17977+309
Lmxo=2 Lmxkb= 2    BasisType=split      Semic=T
L=0  Nsemic=1  Cnfigmx=5
          i=1  nzeta=1  polorb=0  (4s)  (semicore shell)
            splnorm:   0.15000    
               vcte:    40.000    
               rinn:    2.8730    
               qcoe:    0.0000    
               qyuk:    0.0000    
               qwid:   0.10000E-01
                rcs:    3.1890    
            lambdas:    1.0000    
          i=2  nzeta=2  polorb=0  (5s)  (to be polarized non-perturbatively)
            splnorm:   0.15000    
               vcte:    40.000    
               rinn:    7.6698    
               qcoe:    0.0000    
               qyuk:    0.0000    
               qwid:   0.10000E-01
                rcs:    8.5135      6.2416    
            lambdas:    1.0000      1.0000    
L=1  Nsemic=1  Cnfigmx=5
          i=1  nzeta=1  polorb=0  (4p)  (semicore shell)
            splnorm:   0.15000    
               vcte:    40.000    
               rinn:    3.3127    
               qcoe:    0.0000    
               qyuk:    0.0000    
               qwid:   0.10000E-01
                rcs:    3.6771    
            lambdas:    1.0000    
          i=2  nzeta=1  polorb=0  (5p)  (non-perturbative polarization shell)
            splnorm:   0.15000    
               vcte:    40.000    
               rinn:    7.6698    
               qcoe:    0.0000    
               qyuk:    0.0000    
               qwid:   0.10000E-01
                rcs:    8.5135    
            lambdas:    1.0000    
L=2  Nsemic=0  Cnfigmx=4
          i=1  nzeta=2  polorb=0  (4d)
            splnorm:   0.15000    
               vcte:    40.000    
               rinn:    6.0073    
               qcoe:    0.0000    
               qyuk:    0.0000    
               qwid:   0.10000E-01
                rcs:    6.6681      4.4664    
            lambdas:    1.0000      1.0000    
-------------------------------------------------------------------------------
L=0  Nkbl=2  erefs: 0.17977+309 0.17977+309
L=1  Nkbl=2  erefs: 0.17977+309 0.17977+309
L=2  Nkbl=1  erefs: 0.17977+309
===============================================================================
</basis_specs>

<pseudopotential_header>
 Nb pb nrl pcec
 ONCVPSP-3.2017-10-31Hamann's oncvpsp                        
 4s 2.00  r= 1.51/4p 6.00  r= 1.40/4d 4.00  r= 1.40/                    4s:4p:4d:5s:
</pseudopotential_header>
</preamble>
Nb                            # Symbol
Nb                            # Label
   41                         # Atomic number
     13.0000000000                             # Valence charge
     92.9060000000        # Mass 
     210.091102044        # Self energy 
   2   7                      # Lmax for basis, no. of nl orbitals 
   2   6                      # Lmax for projectors, no. of nl KB projectors
# PAOs:__________________________
  0  4  1  0  2.000000   #orbital l, n, z, is_polarized, population
 500    0.6390727411429999E-02     3.188972978303569     # npts, delta, cutoff
     0.000000000000000        0.1552875698865640    
    0.6390727411429999E-02    0.1554489858059467    
    0.1278145482286000E-01    0.1559431834930775    
    0.1917218223429000E-01    0.1567664424758397    
    0.2556290964572000E-01    0.1579181508460059    
    0.3195363705714999E-01    0.1593974543108420    
    0.3834436446857999E-01    0.1612032561136610    
    0.4473509188000999E-01    0.1633342179329042    
    0.5112581929143999E-01    0.1657887611003993    
    0.5751654670286999E-01    0.1685650680641694    
    0.6390727411429999E-01    0.1716610840794153    
    0.7029800152572999E-01    0.1750745191216799    
    0.7668872893715999E-01    0.1788028500186157    
    0.8307945634858999E-01    0.1828433227973518    
    0.8947018376001999E-01    0.1871929552444976    
    0.9586091117144999E-01    0.1918485396757219    
    0.1022516385828800        0.1968066459116581    
    0.1086423659943100        0.2020636244566800    
    0.1150330934057400        0.2076156098768933    
    0.1214238208171700        0.2134585243734751    
    0.1278145482286000        0.2195880815472760    
    0.1342052756400300        0.2259997903504094    
    0.1405960030514600        0.2326889592203344    
    0.1469867304628900        0.2396507003917574    
    0.1533774578743200        0.2468799343814693    
    0.1597681852857500        0.2543713946410612    
    0.1661589126971800        0.2621196323722796    
    0.1725496401086100        0.2701190214996065    
    0.1789403675200400        0.2783637637944769    
    0.1853310949314700        0.2868478941453988    
    0.1917218223429000        0.2955652859680710    
    0.1981125497543300        0.3045096567494689    
    0.2045032771657600        0.3136745737197107    
    0.2108940045771900        0.3230534596454032    
    0.2172847319886200        0.3326395987380342    
    0.2236754594000500        0.3424261426708721    
    0.2300661868114800        0.3524061166977280    
    0.2364569142229100        0.3625724258668355    
    0.2428476416343400        0.3729178613230251    
    0.2492383690457700        0.3834351066912783    
    0.2556290964571999        0.3941167445346957    
    0.2620198238686300        0.4049552628798397    
    0.2684105512800600        0.4159430618023612    
    0.2748012786914900        0.4270724600657957    
    0.2811920061029199        0.4383357018063557    
    0.2875827335143500        0.4497249632565400    
    0.2939734609257800        0.4612323595003729    
    0.3003641883372100        0.4728499512530512    
    0.3067549157486399        0.4845697516578235    
    0.3131456431600699        0.4963837330928988    
    0.3195363705715000        0.5082838339812331    
    0.3259270979829300        0.5202619655960600    
    0.3323178253943599        0.5323100188550728    
    0.3387085528057899        0.5444198710962151    
    0.3450992802172200        0.5565833928281098    
    0.3514900076286500        0.5687924544481819    
    0.3578807350400799        0.5810389329216608    
    0.3642714624515099        0.5933147184146824    
    0.3706621898629400        0.6056117208748292    
    0.3770529172743700        0.6179218765525413    
    0.3834436446857999        0.6302371544569285    
    0.3898343720972299        0.6425495627396420    
    0.3962250995086600        0.6548511550005753    
    0.4026158269200900        0.6671340365092967    
    0.4090065543315199        0.6793903703362567    
    0.4153972817429499        0.6916123833879466    
    0.4217880091543799        0.7037923723403552    
    0.4281787365658100        0.7159227094651789    
    0.4345694639772399        0.7279958483434734    
    0.4409601913886699        0.7400043294615395    
    0.4473509188000999        0.7519407856840395    
    0.4537416462115300        0.7637979475995157    
    0.4601323736229599        0.7755686487336625    
    0.4665231010343899        0.7872458306258885    
    0.4729138284458199        0.7988225477649115    
    0.4793045558572500        0.8102919723793133    
    0.4856952832686799        0.8216473990791660    
    0.4920860106801099        0.8328822493451014    
    0.4984767380915399        0.8439900758613383    
    0.5048674655029699        0.8549645666894202    
    0.5112581929143999        0.8657995492796455    
    0.5176489203258299        0.8764889943173488    
    0.5240396477372600        0.8870270194014523    
    0.5304303751486900        0.8974078925528819    
    0.5368211025601199        0.9076260355506954    
    0.5432118299715499        0.9176760270939841    
    0.5496025573829799        0.9275526057877992    
    0.5559932847944099        0.9372506729516417    
    0.5623840122058399        0.9467652952492004    
    0.5687747396172699        0.9560917071383032    
    0.5751654670287000        0.9652253131402415    
    0.5815561944401300        0.9741616899278503    
    0.5879469218515599        0.9828965882319395    
    0.5943376492629899        0.9914259345659125    
    0.6007283766744199        0.9997458327685997    
    0.6071191040858499         1.007852565365553    
    0.6135098314972799         1.015742594749275    
    0.6199005589087099         1.023412564179043    
    0.6262912863201399         1.030859298601196    
    0.6326820137315700         1.038079805290990    
    0.6390727411429999         1.045071274317259    
    0.6454634685544299         1.051831078831394    
    0.6518541959658599         1.058356775182269    
    0.6582449233772899         1.064646102858992    
    0.6646356507887199         1.070696984263488    
    0.6710263782001499         1.076507524315149    
    0.6774171056115799         1.082076009889916    
    0.6838078330230100         1.087400909096364    
    0.6901985604344399         1.092480870391489    
    0.6965892878458699         1.097314721539063    
    0.7029800152572999         1.101901468413611    
    0.7093707426687299         1.106240293653162    
    0.7157614700801599         1.110330555164068    
    0.7221521974915899         1.114171784481361    
    0.7285429249030199         1.117763684988221    
    0.7349336523144498         1.121106129998224    
    0.7413243797258799         1.124199160704192    
    0.7477151071373099         1.127042983997581    
    0.7541058345487399         1.129637970162399    
    0.7604965619601699         1.131984650447768    
    0.7668872893715999         1.134083714523358    
    0.7732780167830299         1.135936007821966    
    0.7796687441944599         1.137542528773597    
    0.7860594716058898         1.138904425935455    
    0.7924501990173199         1.140022995022386    
    0.7988409264287499         1.140899675842273    
    0.8052316538401799         1.141536049140984    
    0.8116223812516099         1.141933833361511    
    0.8180131086630399         1.142094881321960    
    0.8244038360744699         1.142021176817108    
    0.8307945634858999         1.141714831148192    
    0.8371852908973298         1.141178079585701    
    0.8435760183087598         1.140413277769908    
    0.8499667457201899         1.139422898053829    
    0.8563574731316199         1.138209525793384    
    0.8627482005430499         1.136775855589482    
    0.8691389279544799         1.135124687486676    
    0.8755296553659099         1.133258923133112    
    0.8819203827773399         1.131181561906412    
    0.8883111101887698         1.128895697010072    
    0.8947018376001998         1.126404511544967    
    0.9010925650116299         1.123711274560460    
    0.9074832924230599         1.120819337089612    
    0.9138740198344899         1.117732128172864    
    0.9202647472459199         1.114453150874568    
    0.9266554746573499         1.110985978296637    
    0.9330462020687799         1.107334249595557    
    0.9394369294802098         1.103501672473282    
    0.9458276568916398         1.099492006469596    
    0.9522183843030698         1.095309058195481    
    0.9586091117144999         1.090956691333420    
    0.9649998391259299         1.086438815856291    
    0.9713905665373599         1.081759384132255    
    0.9777812939487899         1.076922387059756    
    0.9841720213602199         1.071931850234349    
    0.9905627487716498         1.066791830150801    
    0.9969534761830798         1.061506410443679    
     1.003344203594510         1.056079698169617    
     1.009734931005940         1.050515820134303    
     1.016125658417370         1.044818919267093    
     1.022516385828800         1.038993151046135    
     1.028907113240230         1.033042679976623    
     1.035297840651660         1.026971676124850    
     1.041688568063090         1.020784311710427    
     1.048079295474520         1.014484757759101    
     1.054470022885950         1.008077180818262    
     1.060860750297380         1.001565739737470    
     1.067251477708810        0.9949545825157585    
     1.073642205120240        0.9882478432177152    
     1.080032932531670        0.9814496389598584    
     1.086423659943100        0.9745640669693091    
     1.092814387354530        0.9675952017158640    
     1.099205114765960        0.9605470921191527    
     1.105595842177390        0.9534237588318307    
     1.111986569588820        0.9462291916003251    
     1.118377297000250        0.9389673467037810    
     1.124768024411680        0.9316421444724582    
     1.131158751823110        0.9242574668860560    
     1.137549479234540        0.9168171552529858    
     1.143940206645970        0.9093250079709007    
     1.150330934057400        0.9017847783691508    
     1.156721661468830        0.8942001726333831    
     1.163112388880260        0.8865748478126776    
     1.169503116291690        0.8789124099093536    
     1.175893843703120        0.8712164120514654    
     1.182284571114550        0.8634903527481007    
     1.188675298525980        0.8557376742271615    
     1.195066025937410        0.8479617608557267    
     1.201456753348840        0.8401659376423620    
     1.207847480760270        0.8323534688213758    
     1.214238208171700        0.8245275565182323    
     1.220628935583130        0.8166913394959003    
     1.227019662994560        0.8088478919813379    
     1.233410390405990        0.8010002225715475    
     1.239801117817420        0.7931512732184740    
     1.246191845228850        0.7853039182918843    
     1.252582572640280        0.7774609637194971    
     1.258973300051710        0.7696251462033508    
     1.265364027463140        0.7617991325114892    
     1.271754754874570        0.7539855188439556    
     1.278145482286000        0.7461868302720374    
     1.284536209697430        0.7384055202496760    
     1.290926937108860        0.7306439701959132    
     1.297317664520290        0.7229044891471050    
     1.303708391931720        0.7151893134778693    
     1.310099119343150        0.7075006066893158    
     1.316489846754580        0.6998404592634946    
     1.322880574166010        0.6922108885826572    
     1.329271301577440        0.6846138389119207    
     1.335662028988870        0.6770511814443326    
     1.342052756400300        0.6695247144065612    
     1.348443483811730        0.6620361632243762    
     1.354834211223160        0.6545871807457879    
     1.361224938634590        0.6471793475192502    
     1.367615666046020        0.6398141721353020    
     1.374006393457450        0.6324930916080354    
     1.380397120868880        0.6252174718201005    
     1.386787848280310        0.6179886080199538    
     1.393178575691740        0.6108077253700694    
     1.399569303103170        0.6036759795075415    
     1.405960030514600        0.5965944572127410    
     1.412350757926030        0.5895641770933355    
     1.418741485337460        0.5825860902834628    
     1.425132212748890        0.5756610812220808    
     1.431522940160320        0.5687899685003001    
     1.437913667571750        0.5619735057016604    
     1.444304394983180        0.5552123822662012    
     1.450695122394610        0.5485072244385070    
     1.457085849806040        0.5418585962363219    
     1.463476577217470        0.5352670003875062    
     1.469867304628900        0.5287328793255810    
     1.476258032040330        0.5222566165917351    
     1.482648759451760        0.5158385383007262    
     1.489039486863190        0.5094789135895648    
     1.495430214274620        0.5031779543605420    
     1.501820941686050        0.4969358161105675    
     1.508211669097480        0.4907526019832555    
     1.514602396508910        0.4846283689111207    
     1.520993123920340        0.4785631343183670    
     1.527383851331770        0.4725568834881702    
     1.533774578743200        0.4666095763550450    
     1.540165306154630        0.4607211526704571    
     1.546556033566060        0.4548915326552115    
     1.552946760977490        0.4491206164547282    
     1.559337488388920        0.4434082835667730    
     1.565728215800350        0.4377543941212413    
     1.572118943211780        0.4321587900428429    
     1.578509670623210        0.4266212960925654    
     1.584900398034640        0.4211417205268536    
     1.591291125446070        0.4157198558362464    
     1.597681852857500        0.4103554794776594    
     1.604072580268930        0.4050483545916980    
     1.610463307680360        0.3997982306931370    
     1.616854035091790        0.3946048443385324    
     1.623244762503220        0.3894679197718021    
     1.629635489914650        0.3843871695483357    
     1.636026217326080        0.3793622951382570    
     1.642416944737510        0.3743929875097176    
     1.648807672148940        0.3694789276922574    
     1.655198399560370        0.3646197873210948    
     1.661589126971800        0.3598152291629566    
     1.667979854383230        0.3550649076237363    
     1.674370581794660        0.3503684692385340    
     1.680761309206090        0.3457255531449874    
     1.687152036617520        0.3411357915398491    
     1.693542764028950        0.3365988101193875    
     1.699933491440380        0.3321142285045572    
     1.706324218851810        0.3276816606508409    
     1.712714946263240        0.3233007152432225    
     1.719105673674670        0.3189709960773032    
     1.725496401086100        0.3146921024264144    
     1.731887128497530        0.3104636293951125    
     1.738277855908960        0.3062851682599959    
     1.744668583320390        0.3021563067978111    
     1.751059310731820        0.2980766296011265    
     1.757450038143250        0.2940457183823216    
     1.763840765554680        0.2900631522661282    
     1.770231492966110        0.2861285080708602    
     1.776622220377540        0.2822413605787825    
     1.783012947788970        0.2784012827962761    
     1.789403675200400        0.2746078462036866    
     1.795794402611830        0.2708606209950957    
     1.802185130023260        0.2671591763090195    
     1.808575857434690        0.2635030804496293    
     1.814966584846120        0.2598919010988980    
     1.821357312257550        0.2563252055203009    
     1.827748039668980        0.2528025607541106    
     1.834138767080410        0.2493235338044771    
     1.840529494491840        0.2458876918185522    
     1.846920221903270        0.2424946022583006    
     1.853310949314700        0.2391438330647667    
     1.859701676726130        0.2358349528150481    
     1.866092404137560        0.2325675308726824    
     1.872483131548990        0.2293411375312305    
     1.878873858960420        0.2261553441513457    
     1.885264586371850        0.2230097232915817    
     1.891655313783280        0.2199038488333503    
     1.898046041194710        0.2168372960999178    
     1.904436768606140        0.2138096419696167    
     1.910827496017570        0.2108204649838663    
     1.917218223429000        0.2078693454498004    
     1.923608950840430        0.2049558655377757    
     1.929999678251860        0.2020796093739089    
     1.936390405663290        0.1992401631280337    
     1.942781133074720        0.1964371150969585    
     1.949171860486150        0.1936700557832009    
     1.955562587897580        0.1909385779695887    
     1.961953315309010        0.1882422767896852    
     1.968344042720440        0.1855807497942129    
     1.974734770131870        0.1829535970135347    
     1.981125497543300        0.1803604210165981    
     1.987516224954730        0.1778008269661862    
     1.993906952366160        0.1752744226707195    
     2.000297679777590        0.1727808186327087    
     2.006688407189020        0.1703196280940675    
     2.013079134600450        0.1678904670782770    
     2.019469862011880        0.1654929544295474    
     2.025860589423310        0.1631267118491451    
     2.032251316834740        0.1607913639289404    
     2.038642044246170        0.1584865381822843    
     2.045032771657600        0.1562118650723085    
     2.051423499069030        0.1539669780377735    
     2.057814226480460        0.1517515135165306    
     2.064204953891890        0.1495651109666913    
     2.070595681303320        0.1474074128856223    
     2.076986408714750        0.1452780648267906    
     2.083377136126180        0.1431767154145958    
     2.089767863537610        0.1411030163572474    
     2.096158590949040        0.1390566224577972    
     2.102549318360470        0.1370371916233067    
     2.108940045771900        0.1350443848723278    
     2.115330773183330        0.1330778663407210    
     2.121721500594760        0.1311373032859205    
     2.128112228006190        0.1292223660895831    
     2.134502955417620        0.1273327282588351    
     2.140893682829050        0.1254680664261231    
     2.147284410240480        0.1236280603477526    
     2.153675137651910        0.1218123929010402    
     2.160065865063340        0.1200207500803135    
     2.166456592474770        0.1182528209917341    
     2.172847319886200        0.1165082978470419    
     2.179238047297630        0.1147868759560958    
     2.185628774709060        0.1130882537184863    
     2.192019502120490        0.1114121326141599    
     2.198410229531920        0.1097582171931775    
     2.204800956943350        0.1081262150644210    
     2.211191684354780        0.1065158368835729    
     2.217582411766210        0.1049267963402567    
     2.223973139177640        0.1033588101445245    
     2.230363866589069        0.1018115980124015    
     2.236754594000500        0.1002848826508875    
     2.243145321411930        0.9877838974224870E-01
     2.249536048823360        0.9729184792782986E-01
     2.255926776234790        0.9582498879104628E-01
     2.262317503646220        0.9437754683996630E-01
     2.268708231057650        0.9294925948930861E-01
     2.275098958469080        0.9153986704208948E-01
     2.281489685880510        0.9014911267060011E-01
     2.287880413291940        0.8877674239704354E-01
     2.294271140703370        0.8742250507373389E-01
     2.300661868114800        0.8608615236299755E-01
     2.307052595526230        0.8476743871661917E-01
     2.313443322937660        0.8346612135493592E-01
     2.319834050349090        0.8218196024565975E-01
     2.326224777760520        0.8091471808240609E-01
     2.332615505171950        0.7966416026300603E-01
     2.339006232583380        0.7843005486741907E-01
     2.345396959994810        0.7721217263552672E-01
     2.351787687406240        0.7601028694465663E-01
     2.358178414817670        0.7482417378703710E-01
     2.364569142229100        0.7365361174688483E-01
     2.370959869640530        0.7249838197744292E-01
     2.377350597051960        0.7135826817783943E-01
     2.383741324463390        0.7023305656986362E-01
     2.390132051874819        0.6912253587459194E-01
     2.396522779286250        0.6802649728888138E-01
     2.402913506697680        0.6694473446181967E-01
     2.409304234109110        0.6587704347107770E-01
     2.415694961520540        0.6482322279926145E-01
     2.422085688931970        0.6378307331011059E-01
     2.428476416343400        0.6275639822472755E-01
     2.434867143754829        0.6174300309775504E-01
     2.441257871166260        0.6074269579356068E-01
     2.447648598577690        0.5975528646239671E-01
     2.454039325989120        0.5878058751654933E-01
     2.460430053400550        0.5781841360652180E-01
     2.466820780811980        0.5686858159722575E-01
     2.473211508223410        0.5593091054421481E-01
     2.479602235634840        0.5500522166993872E-01
     2.485992963046270        0.5409133834004860E-01
     2.492383690457700        0.5318908603975720E-01
     2.498774417869130        0.5229829235025176E-01
     2.505165145280559        0.5141878692516980E-01
     2.511555872691990        0.5055040146715875E-01
     2.517946600103420        0.4969296970450281E-01
     2.524337327514850        0.4884632736784119E-01
     2.530728054926280        0.4801031216694666E-01
     2.537118782337710        0.4718476376763293E-01
     2.543509509749140        0.4636952376874823E-01
     2.549900237160569        0.4556443567926725E-01
     2.556290964572000        0.4476934489550229E-01
     2.562681691983430        0.4398409867837411E-01
     2.569072419394860        0.4320854613087650E-01
     2.575463146806290        0.4244253817561169E-01
     2.581853874217720        0.4168592753245931E-01
     2.588244601629150        0.4093856869637126E-01
     2.594635329040579        0.4020031791524964E-01
     2.601026056452010        0.3947103316804394E-01
     2.607416783863440        0.3875057414291857E-01
     2.613807511274870        0.3803880221557640E-01
     2.620198238686300        0.3733558042771046E-01
     2.626588966097730        0.3664077346557053E-01
     2.632979693509160        0.3595424763874357E-01
     2.639370420920589        0.3527587085902056E-01
     2.645761148332020        0.3460551261943170E-01
     2.652151875743450        0.3394304397340507E-01
     2.658542603154880        0.3328833751407480E-01
     2.664933330566309        0.3264126735378486E-01
     2.671324057977740        0.3200170910369743E-01
     2.677714785389170        0.3136953985357473E-01
     2.684105512800600        0.3074463815168851E-01
     2.690496240212030        0.3012688398489016E-01
     2.696886967623460        0.2951615875886876E-01
     2.703277695034890        0.2891234527852716E-01
     2.709668422446319        0.2831532772852910E-01
     2.716059149857750        0.2772499165398370E-01
     2.722449877269180        0.2714122394128896E-01
     2.728840604680610        0.2656391279916006E-01
     2.735231332092040        0.2599294773978305E-01
     2.741622059503470        0.2542821956013626E-01
     2.748012786914900        0.2486962032345919E-01
     2.754403514326329        0.2431704334087031E-01
     2.760794241737760        0.2377038315316924E-01
     2.767184969149190        0.2322953551276796E-01
     2.773575696560620        0.2269439736578616E-01
     2.779966423972049        0.2216486683429692E-01
     2.786357151383480        0.2164084319872075E-01
     2.792747878794910        0.2112222688038840E-01
     2.799138606206339        0.2060891942424392E-01
     2.805529333617770        0.2010082348170265E-01
     2.811920061029200        0.1959784279366034E-01
     2.818310788440630        0.1909988217365231E-01
     2.824701515852059        0.1860684749116231E-01
     2.831092243263490        0.1811864565508090E-01
     2.837482970674920        0.1763518459731045E-01
     2.843873698086349        0.1715637325651475E-01
     2.850264425497780        0.1668212156202702E-01
     2.856655152909210        0.1621234041788696E-01
     2.863045880320640        0.1574694168702722E-01
     2.869436607732069        0.1528583817560574E-01
     2.875827335143500        0.1482894361747519E-01
     2.882218062554930        0.1437617265880062E-01
     2.888608789966360        0.1392744084281827E-01
     2.894999517377790        0.1348266459633187E-01
     2.901390244789220        0.1304176130725181E-01
     2.907780972200650        0.1260465043767525E-01
     2.914171699612079        0.1217125847969967E-01
     2.920562427023510        0.1174152984306678E-01
     2.926953154434940        0.1131544162334077E-01
     2.933343881846370        0.1089301774548954E-01
     2.939734609257799        0.1047433894183978E-01
     2.946125336669230        0.1005954722606828E-01
     2.952516064080660        0.9648845217829723E-02
     2.958906791492089        0.9242491480364537E-02
     2.965297518903520        0.8840793202353394E-02
     2.971688246314950        0.8444097400437592E-02
     2.978078973726380        0.8052781553145658E-02
     2.984469701137809        0.7667244310428061E-02
     2.990860428549240        0.7287896699528063E-02
     2.997251155960670        0.6915154077335704E-02
     3.003641883372099        0.6549428957228162E-02
     3.010032610783530        0.6191124754787439E-02
     3.016423338194960        0.5840630442348095E-02
     3.022814065606390        0.5498316068704011E-02
     3.029204793017819        0.5164529081084248E-02
     3.035595520429250        0.4839591377012394E-02
     3.041986247840680        0.4523797010532971E-02
     3.048376975252109        0.4217410478034376E-02
     3.054767702663540        0.3920665512039691E-02
     3.061158430074970        0.3633764315693989E-02
     3.067549157486400        0.3356877175455538E-02
     3.073939884897829        0.3090142394312388E-02
     3.080330612309260        0.2833666492162045E-02
     3.086721339720690        0.2587524623577502E-02
     3.093112067132120        0.2351761165689059E-02
     3.099502794543549        0.2126390429894573E-02
     3.105893521954980        0.1911397449900172E-02
     3.112284249366410        0.1706738794166442E-02
     3.118674976777839        0.1512343341209468E-02
     3.125065704189270        0.1328112938006153E-02
     3.131456431600700        0.1153922828411609E-02
     3.137847159012130        0.9896216770010021E-03
     3.144237886423559        0.8350308966987420E-03
     3.150628613834990        0.6899427541639599E-03
     3.157019341246420        0.5541162235007535E-03
     3.163410068657849        0.4272683724758543E-03
     3.169800796069280        0.3090558953584929E-03
     3.176191523480710        0.1990312803960490E-03
     3.182582250892140        0.9651523128587777E-04
     3.188972978303569         0.000000000000000    
  0  5  1  0  1.000000   #orbital l, n, z, is_polarized, population
 500    0.1706116937836570E-01     8.513523519804487     # npts, delta, cutoff
     0.000000000000000        0.6179834539580484E-01
    0.1706116937836570E-01    0.6225216254178540E-01
    0.3412233875673141E-01    0.6361451876989493E-01