<preamble>

<basis_specs>
===============================================================================
Po                   Z=  84    Mass=  208.98        Charge= 0.17977+309
Lmxo=2 Lmxkb= 3    BasisType=split      Semic=T
L=0  Nsemic=0  Cnfigmx=6
          i=1  nzeta=2  polorb=0  (6s)
            splnorm:   0.15000    
               vcte:    40.000    
               rinn:    4.6345    
               qcoe:    0.0000    
               qyuk:    0.0000    
               qwid:   0.10000E-01
                rcs:    5.1494      3.5753    
            lambdas:    1.0000      1.0000    
L=1  Nsemic=0  Cnfigmx=6
          i=1  nzeta=2  polorb=0  (6p)  (to be polarized non-perturbatively)
            splnorm:   0.15000    
               vcte:    40.000    
               rinn:    6.3094    
               qcoe:    0.0000    
               qyuk:    0.0000    
               qwid:   0.10000E-01
                rcs:    7.0105      4.9670    
            lambdas:    1.0000      1.0000    
L=2  Nsemic=1  Cnfigmx=6
          i=1  nzeta=1  polorb=0  (5d)  (semicore shell)
            splnorm:   0.15000    
               vcte:    40.000    
               rinn:    3.1005    
               qcoe:    0.0000    
               qyuk:    0.0000    
               qwid:   0.10000E-01
                rcs:    3.4416    
            lambdas:    1.0000    
          i=2  nzeta=1  polorb=0  (6d)  (non-perturbative polarization shell)
            splnorm:   0.15000    
               vcte:    40.000    
               rinn:    6.3157    
               qcoe:    0.0000    
               qyuk:    0.0000    
               qwid:   0.10000E-01
                rcs:    7.0105    
            lambdas:    1.0000    
-------------------------------------------------------------------------------
L=0  Nkbl=1  erefs: 0.17977+309
L=1  Nkbl=1  erefs: 0.17977+309
L=2  Nkbl=2  erefs: 0.17977+309 0.17977+309
L=3  Nkbl=1  erefs: 0.17977+309
===============================================================================
</basis_specs>

<pseudopotential_header>
 Po pb nrl pcec
 ONCVPSP-4.2023-03-20Hamann's oncvpsp                        
 6s 2.00  r= 2.16/6p 4.00  r= 2.21/5d10.00  r= 1.90/5f 0.00  r= 2.01/   5d:6s:6p:
</pseudopotential_header>
</preamble>
Po                            # Symbol
Po                            # Label
   84                         # Atomic number
     16.0000000000                             # Valence charge
     208.980000000        # Mass 
     214.516202263        # Self energy 
   2   6                      # Lmax for basis, no. of nl orbitals 
   3   8                      # Lmax for projectors, no. of nl KB projectors
# PAOs:__________________________
  0  6  1  0  2.000000   #orbital l, n, z, is_polarized, population
 500    0.1031953731367369E-01     5.149449119523172     # npts, delta, cutoff
     0.000000000000000        0.2262970617928447E-01
    0.1031953731367369E-01    0.2270504999319766E-01
    0.2063907462734738E-01    0.2293279877858725E-01
    0.3095861194102107E-01    0.2331207919940202E-01
    0.4127814925469476E-01    0.2384244001617774E-01
    0.5159768656836845E-01    0.2452325130181288E-01
    0.6191722388204214E-01    0.2535370596933114E-01
    0.7223676119571583E-01    0.2633282183700400E-01
    0.8255629850938952E-01    0.2745944415001999E-01
    0.9287583582306320E-01    0.2873224854134320E-01
    0.1031953731367369        0.3014974441943204E-01
    0.1135149104504106        0.3171027877024605E-01
    0.1238344477640843        0.3341204035989861E-01
    0.1341539850777580        0.3525306432306746E-01
    0.1444735223914317        0.3723123712101746E-01
    0.1547930597051053        0.3934430185185977E-01
    0.1651125970187790        0.4158986389448297E-01
    0.1754321343324527        0.4396539686646938E-01
    0.1857516716461264        0.4646824887524297E-01
    0.1960712089598001        0.4909564904071003E-01
    0.2063907462734738        0.5184471426674946E-01
    0.2167102835871475        0.5471245623808432E-01
    0.2270298209008212        0.5769578861833646E-01
    0.2373493582144948        0.6079153442442815E-01
    0.2476688955281686        0.6399643355195234E-01
    0.2579884328418423        0.6730715042568639E-01
    0.2683079701555159        0.7072028174908379E-01
    0.2786275074691896        0.7423236432632951E-01
    0.2889470447828633        0.7783988293040600E-01
    0.2992665820965370        0.8153927819057363E-01
    0.3095861194102107        0.8532695447272978E-01
    0.3199056567238844        0.8919928772627513E-01
    0.3302251940375581        0.9315263327137406E-01
    0.3405447313512318        0.9718333350085898E-01
    0.3508642686649054        0.1012877254714868    
    0.3611838059785791        0.1054621483598052    
    0.3715033432922528        0.1097029507585381    
    0.3818228806059265        0.1140064977901274    
    0.3921424179196002        0.1183691780149012    
    0.4024619552332739        0.1227874101122324    
    0.4127814925469476        0.1272576493140503    
    0.4231010298606213        0.1317763935711191    
    0.4334205671742949        0.1363401894336358    
    0.4437401044879686        0.1409456376288990    
    0.4540596418016423        0.1455893983200587    
    0.4643791791153160        0.1502681960312807    
    0.4746987164289897        0.1549788242260223    
    0.4850182537426634        0.1597181495265385    
    0.4953377910563371        0.1644831155641881    
    0.5056573283700108        0.1692707464516029    
    0.5159768656836845        0.1740781498693021    
    0.5262964029973581        0.1789025197608706    
    0.5366159403110319        0.1837411386323833    
    0.5469354776247055        0.1885913794533222    
    0.5572550149383793        0.1934507071578025    
    0.5675745522520529        0.1983166797464957    
    0.5778940895657266        0.2031869489911993    
    0.5882136268794003        0.2080592607455402    
    0.5985331641930740        0.2129314548668402    
    0.6088527015067476        0.2178014647556440    
    0.6191722388204214        0.2226673165209096    
    0.6294917761340950        0.2275271277802560    
    0.6398113134477688        0.2323791061060649    
    0.6501308507614424        0.2372215471295643    
    0.6604503880751161        0.2420528323162990    
    0.6707699253887899        0.2468714264276118    
    0.6810894627024635        0.2516758746839182    
    0.6914090000161373        0.2564647996466506    
    0.7017285373298109        0.2612368978367558    
    0.7120480746434846        0.2659909361085601    
    0.7223676119571583        0.2707257477987091    
    0.7326871492708320        0.2754402286706194    
    0.7430066865845056        0.2801333326756090    
    0.7533262238981794        0.2848040675524558    
    0.7636457612118530        0.2894514902876493    
    0.7739652985255268        0.2940747024590156    
    0.7842848358392004        0.2986728454857363    
    0.7946043731528741        0.3032450958079972    
    0.8049239104665478        0.3077906600196407    
    0.8152434477802215        0.3123087699772520    
    0.8255629850938951        0.3167986779090350    
    0.8358825224075689        0.3212596515466890    
    0.8462020597212425        0.3256909693032771    
    0.8565215970349163        0.3300919155196959    
    0.8668411343485899        0.3344617758019754    
    0.8771606716622636        0.3387998324710976    
    0.8874802089759373        0.3431053601464225    
    0.8977997462896110        0.3473776214831300    
    0.9081192836032846        0.3516158630833208    
    0.9184388209169584        0.3558193115995696    
    0.9287583582306320        0.3599871700487955    
    0.9390778955443058        0.3641186143533794    
    0.9493974328579794        0.3682127901253144    
    0.9597169701716531        0.3722688097081532    
    0.9700365074853268        0.3762857494902901    
    0.9803560447990005        0.3802626475019121    
    0.9906755821126743        0.3841985013066858    
     1.000995119426348        0.3880922661979287    
     1.011314656740022        0.3919428537076868    
     1.021634194053695        0.3957491304357166    
     1.031953731367369        0.3995099172041288    
     1.042273268681043        0.4032239885416527    
     1.052592805994716        0.4068900725007142    
     1.062912343308390        0.4105068508081861    
     1.073231880622064        0.4140729593502188    
     1.083551417935738        0.4175869889892190    
     1.093870955249411        0.4210474867103016    
     1.104190492563085        0.4244529570927580    
     1.114510029876759        0.4278018641007696    
     1.124829567190432        0.4310926331864125    
     1.135149104504106        0.4343236536963142    
     1.145468641817780        0.4374932815725740    
     1.155788179131453        0.4405998423366574    
     1.166107716445127        0.4436416343443542    
     1.176427253758801        0.4466169322984931    
     1.186746791072474        0.4495239910049286    
     1.197066328386148        0.4523610493565454    
     1.207385865699822        0.4551263345289596    
     1.217705403013495        0.4578180663704066    
     1.228024940327169        0.4604344619682501    
     1.238344477640843        0.4629737403727960    
     1.248664014954517        0.4654341274595220    
     1.258983552268190        0.4678138609090418    
     1.269303089581864        0.4701111952851065    
     1.279622626895538        0.4723244071888697    
     1.289942164209211        0.4744518004688636    
     1.300261701522885        0.4764917114646449    
     1.310581238836559        0.4784425142629953    
     1.320900776150232        0.4803026259444953    
     1.331220313463906        0.4820705117991859    
     1.341539850777580        0.4837446904895450    
     1.351859388091253        0.4853237391394637    
     1.362178925404927        0.4868062983282078    
     1.372498462718601        0.4881910769688665    
     1.382818000032275        0.4894768570505105    
     1.393137537345948        0.4906624982251008    
     1.403457074659622        0.4917469422195208    
     1.413776611973296        0.4927292170546651    
     1.424096149286969        0.4936084410537450    
     1.434415686600643        0.4943838266234306    
     1.444735223914317        0.4950546837913743    
     1.455054761227990        0.4956204234859515    
     1.465374298541664        0.4960805605435414    
     1.475693835855338        0.4964347164312943    
     1.486013373169011        0.4966826216730727    
     1.496332910482685        0.4968241179685913    
     1.506652447796359        0.4968591599959970    
     1.516971985110032        0.4967878168902444    
     1.527291522423706        0.4966102733901460    
     1.537611059737380        0.4963268306487955    
     1.547930597051054        0.4959379067032481    
     1.558250134364727        0.4954440366003776    
     1.568569671678401        0.4948458721777831    
     1.578889208992075        0.4941441814991249    
     1.589208746305748        0.4933398479455965    
     1.599528283619422        0.4924338689655912    
     1.609847820933096        0.4914273544866529    
     1.620167358246769        0.4903215249948647    
     1.630486895560443        0.4891177092877693    
     1.640806432874117        0.4878173419090757    
     1.651125970187790        0.4864219602731965    
     1.661445507501464        0.4849332009593335    
     1.671765044815138        0.4833528540343828    
     1.682084582128812        0.4816826892020095    
     1.692404119442485        0.4799246200234905    
     1.702723656756159        0.4780806450647675    
     1.713043194069833        0.4761528426464362    
     1.723362731383506        0.4741433661416106    
     1.733682268697180        0.4720544390732287    
     1.744001806010854        0.4698883500282728    
     1.754321343324527        0.4676474474071829    
     1.764640880638201        0.4653341340270712    
     1.774960417951875        0.4629508615983597    
     1.785279955265548        0.4605001250940723    
     1.795599492579222        0.4579844570323222    
     1.805919029892896        0.4554064216918209    
     1.816238567206569        0.4527686092812357    
     1.826558104520243        0.4500736300830308    
     1.836877641833917        0.4473241085919426    
     1.847197179147591        0.4445226776688641    
     1.857516716461264        0.4416719727313819    
     1.867836253774938        0.4387746259992756    
     1.878155791088612        0.4358332608172234    
     1.888475328402285        0.4328504860710503    
     1.898794865715959        0.4298288907165218    
     1.909114403029633        0.4267710384505156    
     1.919433940343306        0.4236794625368003    
     1.929753477656980        0.4205566607873533    
     1.940073014970654        0.4174050906804706    
     1.950392552284327        0.4142271648065921    
     1.960712089598001        0.4110252464099494    
     1.971031626911675        0.4078016452161324    
     1.981351164225349        0.4045586134872514    
     1.991670701539022        0.4012983423344718    
     2.001990238852696        0.3980229582960283    
     2.012309776166370        0.3947345201909903    
     2.022629313480043        0.3914350162575239    
     2.032948850793717        0.3881263615834276    
     2.043268388107391        0.3848103958354458    
     2.053587925421064        0.3814888812927228    
     2.063907462734738        0.3781635011886397    
     2.074227000048412        0.3748358583638504    
     2.084546537362086        0.3715074742323596    
     2.094866074675759        0.3681797880611484    
     2.105185611989433        0.3648541565626873    
     2.115505149303107        0.3615318537984467    
     2.125824686616780        0.3582140713878141    
     2.136144223930454        0.3549019189903542    
     2.146463761244128        0.3515964254128753    
     2.156783298557801        0.3482985388581158    
     2.167102835871475        0.3450091294196897    
     2.177422373185149        0.3417290046332487    
     2.187741910498822        0.3384589300989029    
     2.198061447812496        0.3351996390694033    
     2.208380985126170        0.3319518317144758    
     2.218700522439843        0.3287161762178127    
     2.229020059753517        0.3254933099561594    
     2.239339597067191        0.3222838404518711    
     2.249659134380865        0.3190883463334901    
     2.259978671694538        0.3159073782855395    
     2.270298209008212        0.3127414599681370    
     2.280617746321886        0.3095910888965988    
     2.290937283635559        0.3064567373028179    
     2.301256820949233        0.3033388529760375    
     2.311576358262907        0.3002378600726994    
     2.321895895576580        0.2971541599062251    
     2.332215432890254        0.2940881317127271    
     2.342534970203928        0.2910401333944244    
     2.352854507517601        0.2880105022413235    
     2.363174044831275        0.2849995556316480    
     2.373493582144949        0.2820075917116368    
     2.383813119458623        0.2790348900552846    
     2.394132656772296        0.2760817123044993    
     2.404452194085970        0.2731483027903175    
     2.414771731399644        0.2702348891356481    
     2.425091268713317        0.2673416828399867    
     2.435410806026991        0.2644688798466982    
     2.445730343340665        0.2616166610932979    
     2.456049880654338        0.2587851930452141    
     2.466369417968012        0.2559746282134776    
     2.476688955281686        0.2531851056567753    
     2.487008492595359        0.2504167514683334    
     2.497328029909033        0.2476696792480618    
     2.507647567222707        0.2449439905603090    
     2.517967104536380        0.2422397753776742    
     2.528286641850054        0.2395571125112853    
     2.538606179163728        0.2368960700278739    
     2.548925716477402        0.2342567056540502    
     2.559245253791075        0.2316390671681453    
     2.569564791104749        0.2290431927799443    
     2.579884328418423        0.2264691114986807    
     2.590203865732096        0.2239168434896161    
     2.600523403045770        0.2213864004194895    
     2.610842940359444        0.2188777857912126    
     2.621162477673117        0.2163909952681208    
     2.631482014986791        0.2139260169880138    
     2.641801552300465        0.2114828318673215    
     2.652121089614138        0.2090614138956691    
     2.662440626927812        0.2066617304211266    
     2.672760164241486        0.2042837424264086    
     2.683079701555160        0.2019274047962805    
     2.693399238868833        0.1995926665764035    
     2.703718776182507        0.1972794712238899    
     2.714038313496181        0.1949877568498269    
     2.724357850809854        0.1927174564539595    
     2.734677388123528        0.1904684981517927    
     2.744996925437202        0.1882408053943124    
     2.755316462750875        0.1860342971805534    
     2.765636000064549        0.1838488882632170    
     2.775955537378223        0.1816844893475455    
     2.786275074691896        0.1795410072836519    
     2.796594612005570        0.1774183452524898    
     2.806914149319244        0.1753164029456636    
     2.817233686632917        0.1732350767392490    
     2.827553223946591        0.1711742598617935    
     2.837872761260265        0.1691338425566959    
     2.848192298573939        0.1671137122391030    
     2.858511835887612        0.1651137536475132    
     2.868831373201286        0.1631338489902213    
     2.879150910514960        0.1611738780867530    
     2.889470447828633        0.1592337185044768    
     2.899789985142307        0.1573132456905050    
     2.910109522455981        0.1554123330990267    
     2.920429059769654        0.1535308523142200    
     2.930748597083328        0.1516686731688830    
     2.941068134397002        0.1498256638588923    
     2.951387671710675        0.1480016910536191    
     2.961707209024349        0.1461966200024529    
     2.972026746338023        0.1444103146375200    
     2.982346283651697        0.1426426376727166    
     2.992665820965370        0.1408934506991851    
     3.002985358279044        0.1391626142773239    
     3.013304895592718        0.1374499880254538    
     3.023624432906391        0.1357554307052320    
     3.033943970220065        0.1340788003039095    
     3.044263507533739        0.1324199541135411    
     3.054583044847412        0.1307787488072508    
     3.064902582161086        0.1291550405126161    
     3.075222119474760        0.1275486848822673    
     3.085541656788433        0.1259595371618151    
     3.095861194102107        0.1243874522551692    
     3.106180731415781        0.1228322847873225    
     3.116500268729454        0.1212938891646902    
     3.126819806043128        0.1197721196330879    
     3.137139343356802        0.1182668303334106    
     3.147458880670476        0.1167778753550880    
     3.157778417984149        0.1153051087873926    
     3.168097955297823        0.1138483847686702    
     3.178417492611497        0.1124075575335431    
     3.188737029925170        0.1109824814581660    
     3.199056567238844        0.1095730111035927    
     3.209376104552518        0.1081790012573187    
     3.219695641866191        0.1068003069730512    
     3.230015179179865        0.1054367836087672    
     3.240334716493539        0.1040882868631169    
     3.250654253807212        0.1027546728102205    
     3.260973791120886        0.1014357979329233    
     3.271293328434560        0.1001315191545435    
     3.281612865748233        0.9884169386917467E-01
     3.291932403061907        0.9756617997058509E-01
     3.302251940375581        0.9630483587976858E-01
     3.312571477689255        0.9505752057117436E-01
     3.322891015002928        0.9382409359767949E-01
     3.333210552316602        0.9260441511433032E-01
     3.343530089630276        0.9139834590090919E-01
     3.353849626943949        0.9020574738335206E-01
     3.364169164257623        0.8902648165406953E-01
     3.374488701571297        0.8786041149119315E-01
     3.384808238884970        0.8670740037679722E-01
     3.395127776198644        0.8556731251412519E-01
     3.405447313512318        0.8444001284385942E-01
     3.415766850825991        0.8332536705945734E-01
     3.426086388139665        0.8222324162159869E-01
     3.436405925453339        0.8113350377176726E-01
     3.446725462767013        0.8005602154500216E-01
     3.457045000080686        0.7899066378184239E-01
     3.467364537394360        0.7793730013949789E-01
     3.477684074708034        0.7689580110227415E-01
     3.488003612021707        0.7586603799127689E-01
     3.498323149335381        0.7484788297341813E-01
     3.508642686649055        0.7384120906975515E-01
     3.518962223962728        0.7284589016318575E-01
     3.529281761276402        0.7186180100552098E-01
     3.539601298590076        0.7088881722395794E-01
     3.549920835903749        0.6992681532697548E-01
     3.560240373217423        0.6897567270967607E-01
     3.570559910531097        0.6803526765859251E-01
     3.580879447844770        0.6710547935598060E-01
     3.591198985158444        0.6618618788361556E-01
     3.601518522472118        0.6527727422611429E-01
     3.611838059785792        0.6437862027379633E-01
     3.622157597099465        0.6349010882510828E-01
     3.632477134413139        0.6261162358862131E-01
     3.642796671726813        0.6174304918462491E-01
     3.653116209040486        0.6088427114632526E-01
     3.663435746354160        0.6003517592067239E-01
     3.673755283667834        0.5919565086882514E-01
     3.684074820981507        0.5836558426626973E-01
     3.694394358295181        0.5754486530260532E-01
     3.704713895608855        0.5673338408101251E-01
     3.715033432922528        0.5593103161741423E-01
     3.725352970236202        0.5513769983934391E-01
     3.735672507549876        0.5435328158453419E-01
     3.745992044863550        0.5357767059923380E-01
     3.756311582177223        0.5281076153626905E-01
     3.766631119490897        0.5205244995285601E-01
     3.776950656804571        0.5130263230817842E-01
     3.787270194118244        0.5056120596073711E-01
     3.797589731431918        0.4982806916548568E-01
     3.807909268745592        0.4910312107075770E-01
     3.818228806059265        0.4838626171499728E-01
     3.828548343372939        0.4767739202329997E-01
     3.838867880686613        0.4697641380377476E-01
     3.849187418000286        0.4628322974373347E-01
     3.859506955313960        0.4559774340571590E-01
     3.869826492627634        0.4491985922335728E-01
     3.880146029941307        0.4424948249711017E-01
     3.890465567254981        0.4358651938988946E-01
     3.900785104568655        0.4293087692229022E-01
     3.911104641882329        0.4228246296825613E-01
     3.921424179196002        0.4164118624994698E-01
     3.931743716509676        0.4100695633249421E-01
     3.942063253823350        0.4037968361996164E-01
     3.952382791137023        0.3975927935125095E-01
     3.962702328450697        0.3914565559275894E-01
     3.973021865764371        0.3853872522897091E-01
     3.983341403078044        0.3793840196444844E-01
     3.993660940391718        0.3734460031922339E-01
     4.003980477705392        0.3675723561713577E-01
     4.014300015019066        0.3617622398110951E-01
     4.024619552332739        0.3560148232976273E-01
     4.034939089646413        0.3503292837118021E-01
     4.045258626960086        0.3447048059656282E-01
     4.055578164273760        0.3391405827441466E-01
     4.065897701587434        0.3336358144463256E-01
     4.076217238901108        0.3281897091249477E-01
     4.086536776214781        0.3228014824261616E-01
     4.096856313528455        0.3174703575286721E-01
     4.107175850842128        0.3121955650824054E-01
     4.117495388155803        0.3069763431468282E-01
     4.127814925469476        0.3018119371289793E-01
     4.138134462783150        0.2967015997211615E-01
     4.148454000096823        0.2916445908383831E-01
     4.158773537410497        0.2866401775555452E-01
     4.169093074724171        0.2816876340443896E-01
     4.179412612037845        0.2767862415102684E-01
     4.189732149351518        0.2719352881287287E-01
     4.200051686665192        0.2671340689819435E-01
     4.210371223978865        0.2623818859950168E-01
     4.220690761292539        0.2576780478721753E-01
     4.231010298606213        0.2530218700328686E-01
     4.241329835919887        0.2484126745478081E-01
     4.251649373233560        0.2438497900749386E-01
     4.261968910547234        0.2393325517953951E-01
     4.272288447860907        0.2348603013494224E-01
     4.282607985174582        0.2304323867723080E-01
     4.292927522488255        0.2260481624303289E-01
     4.303247059801929        0.2217069889567159E-01
     4.313566597115602        0.2174082331876787E-01
     4.323886134429276        0.2131512680984788E-01
     4.334205671742950        0.2089354727395771E-01
     4.344525209056624        0.2047602321728648E-01
     4.354844746370297        0.2006249374079887E-01
     4.365164283683971        0.1965289853387931E-01
     4.375483820997644        0.1924717786798627E-01
     4.385803358311319        0.1884527259032142E-01
     4.396122895624992        0.1844712411751179E-01
     4.406442432938666        0.1805267442930673E-01
     4.416761970252339        0.1766186606229116E-01
     4.427081507566013        0.1727464210361513E-01
     4.437401044879686        0.1689094618474159E-01
     4.447720582193361        0.1651072247521138E-01
     4.458040119507034        0.1613391567642877E-01
     4.468359656820708        0.1576047101546598E-01
     4.478679194134381        0.1539033423888827E-01
     4.488998731448055        0.1502345160660082E-01
     4.499318268761729        0.1465976988571643E-01
     4.509637806075403        0.1429923634444690E-01
     4.519957343389076        0.1394179874601599E-01
     4.530276880702750        0.1358740534259694E-01
     4.540596418016423        0.1323600486927389E-01
     4.550915955330098        0.1288754653802714E-01
     4.561235492643771        0.1254198003174405E-01
     4.571555029957445        0.1219925549825468E-01
     4.581874567271118        0.1185932354439335E-01
     4.592194104584792        0.1152213523008621E-01
     4.602513641898465        0.1118764206246554E-01
     4.612833179212140        0.1085579599001066E-01
     4.623152716525813        0.1052654939671561E-01
     4.633472253839487        0.1019985509628434E-01
     4.643791791153160        0.9875666326353063E-02
     4.654111328466834        0.9553936742741168E-02
     4.664430865780508        0.9234620413800576E-02
     4.674750403094182        0.8917671828760555E-02
     4.685069940407855        0.8603046256775828E-02
     4.695389477721529        0.8290702404617042E-02
     4.705709015035202        0.7980610655305495E-02
     4.716028552348877        0.7672767189633797E-02
     4.726348089662550        0.7367209966854654E-02
     4.736667626976224        0.7064031777639551E-02
     4.746987164289897        0.6763387640406119E-02
     4.757306701603571        0.6465496114171757E-02
     4.767626238917245        0.6170635493903634E-02
     4.777945776230919        0.5879136358390089E-02
     4.788265313544592        0.5591371912277584E-02
     4.798584850858266        0.5307747306415969E-02
     4.808904388171939        0.5028688811360879E-02
     4.819223925485613        0.4754633439283239E-02
     4.829543462799287        0.4486019386613138E-02
     4.839863000112961        0.4223277504634720E-02
     4.850182537426634        0.3966823889171468E-02
     4.860502074740308        0.3717053602428490E-02
     4.870821612053981        0.3474335489930711E-02
     4.881141149367656        0.3239008025151838E-02
     4.891460686681329        0.3011376097719481E-02
     4.901780223995003        0.2791708653504512E-02
     4.912099761308676        0.2580237093286610E-02
     4.922419298622350        0.2377154338812967E-02
     4.932738835936024        0.2182614479412346E-02
     4.943058373249698        0.1996732917864698E-02
     4.953377910563371        0.1819586940247183E-02
     4.963697447877045        0.1651216640513151E-02
     4.974016985190718        0.1491626136250157E-02
     4.984336522504393        0.1340785017141540E-02
     4.994656059818066        0.1198629971834110E-02
     5.004975597131740        0.1065066541858867E-02
     5.015295134445413        0.9399709524302828E-03
     5.025614671759087        0.8231919685021939E-03
     5.035934209072760        0.7145527188229399E-03
     5.046253746386435        0.6138524180149058E-03
     5.056573283700108        0.5208678912162520E-03
     5.066892821013782        0.4353547558717501E-03
     5.077212358327455        0.3570480151654916E-03
     5.087531895641129        0.2856616066410241E-03
     5.097851432954803        0.2208859698607354E-03
     5.108170970268477        0.1623814847633284E-03
     5.118490507582150        0.1097620814927304E-03
     5.128810044895824        0.6255093729182213E-04
     5.139129582209497        0.2001742000224830E-04
     5.149449119523172         0.000000000000000    
  0  6  2  0  0.000000   #orbital l, n, z, is_polarized, population
 500    0.7164841208177787E-02     3.575255762880715     # npts, delta, cutoff
     0.000000000000000       -0.4179138927763176    
    0.7164841208177787E-02   -0.4178395730945552    
    0.1432968241635557E-01   -0.4176129932645437    
    0.2149452362453336E-01   -0.4172355011080658    
    0.2865936483271115E-01   -0.4167073099059477    
    0.3582420604088894E-01   -0.4160287173674420    
    0.4298904724906672E-01   -0.4152001055441119    
    0.5015388845724451E-01   -0.4142219403949916    
    0.5731872966542229E-01   -0.4130947712173585    