<preamble>

<basis_specs>
===============================================================================
Pt                   Z=  78    Mass=  195.08        Charge= 0.17977+309
Lmxo=2 Lmxkb= 3    BasisType=split      Semic=T
L=0  Nsemic=1  Cnfigmx=6
          i=1  nzeta=1  polorb=0  (5s)  (semicore shell)
            splnorm:   0.15000    
               vcte:    40.000    
               rinn:    2.3435    
               qcoe:    0.0000    
               qyuk:    0.0000    
               qwid:   0.10000E-01
                rcs:    2.6039    
            lambdas:    1.0000    
          i=2  nzeta=2  polorb=0  (6s)  (to be polarized non-perturbatively)
            splnorm:   0.15000    
               vcte:    40.000    
               rinn:    6.1350    
               qcoe:    0.0000    
               qyuk:    0.0000    
               qwid:   0.10000E-01
                rcs:    6.8166      4.8248    
            lambdas:    1.0000      1.0000    
L=1  Nsemic=1  Cnfigmx=6
          i=1  nzeta=1  polorb=0  (5p)  (semicore shell)
            splnorm:   0.15000    
               vcte:    40.000    
               rinn:    2.7766    
               qcoe:    0.0000    
               qyuk:    0.0000    
               qwid:   0.10000E-01
                rcs:    3.0820    
            lambdas:    1.0000    
          i=2  nzeta=1  polorb=0  (6p)  (non-perturbative polarization shell)
            splnorm:   0.15000    
               vcte:    40.000    
               rinn:    6.1411    
               qcoe:    0.0000    
               qyuk:    0.0000    
               qwid:   0.10000E-01
                rcs:    6.8166    
            lambdas:    1.0000    
L=2  Nsemic=0  Cnfigmx=5
          i=1  nzeta=2  polorb=0  (5d)
            splnorm:   0.15000    
               vcte:    40.000    
               rinn:    4.7000    
               qcoe:    0.0000    
               qyuk:    0.0000    
               qwid:   0.10000E-01
                rcs:    5.2222      3.3834    
            lambdas:    1.0000      1.0000    
-------------------------------------------------------------------------------
L=0  Nkbl=2  erefs: 0.17977+309 0.17977+309
L=1  Nkbl=2  erefs: 0.17977+309 0.17977+309
L=2  Nkbl=1  erefs: 0.17977+309
L=3  Nkbl=1  erefs: 0.17977+309
===============================================================================
</basis_specs>

<pseudopotential_header>
 Pt pb nrl pcec
 ONCVPSP-3.2017-10-31Hamann's oncvpsp                        
 5s 2.00  r= 1.46/5p 6.00  r= 1.46/5d 9.00  r= 1.46/5f 0.00  r= 1.92/   5s:5p:5d:6s:
</pseudopotential_header>
</preamble>
Pt                            # Symbol
Pt                            # Label
   78                         # Atomic number
     18.0000000000                             # Valence charge
     195.080000000        # Mass 
     358.660162100        # Self energy 
   2   7                      # Lmax for basis, no. of nl orbitals 
   3   8                      # Lmax for projectors, no. of nl KB projectors
# PAOs:__________________________
  0  5  1  0  2.000000   #orbital l, n, z, is_polarized, population
 500    0.5218165521435105E-02     2.603864595196117     # npts, delta, cutoff
     0.000000000000000        0.6704359772838511    
    0.5218165521435105E-02    0.6705503635332308    
    0.1043633104287021E-01    0.6709536130838704    
    0.1565449656430531E-01    0.6716254176811430    
    0.2087266208574042E-01    0.6725653124285288    
    0.2609082760717553E-01    0.6737726585278238    
    0.3130899312861063E-01    0.6752466373462817    
    0.3652715865004574E-01    0.6769862501304483    
    0.4174532417148084E-01    0.6789903185475762    
    0.4696348969291595E-01    0.6812574855185339    
    0.5218165521435106E-01    0.6837862162343177    
    0.5739982073578616E-01    0.6865747993260272    
    0.6261798625722126E-01    0.6896213481775065    
    0.6783615177865637E-01    0.6929238023757324    
    0.7305431730009147E-01    0.6964799292960456    
    0.7827248282152659E-01    0.7002873258200544    
    0.8349064834296169E-01    0.7043434201843023    
    0.8870881386439679E-01    0.7086454739578520    
    0.9392697938583190E-01    0.7131905841469143    
    0.9914514490726700E-01    0.7179756854245742    
    0.1043633104287021        0.7229975524835893    
    0.1095814759501372        0.7282528025101496    
    0.1147996414715723        0.7337378977763735    
    0.1200178069930074        0.7394491483492243    
    0.1252359725144425        0.7453827149134362    
    0.1304541380358776        0.7515346117059349    
    0.1356723035573127        0.7579007095591404    
    0.1408904690787479        0.7644767390504636    
    0.1461086346001829        0.7712582937551797    
    0.1513268001216181        0.7782408335998212    
    0.1565449656430532        0.7854196883130988    
    0.1617631311644883        0.7927900609713209    
    0.1669812966859234        0.8003470316351434    
    0.1721994622073585        0.8080855610744861    
    0.1774176277287936        0.8160004945782823    
    0.1826357932502287        0.8240865658457318    
    0.1878539587716638        0.8323384009556273    
    0.1930721242930989        0.8407505224102514    
    0.1982902898145340        0.8493173532503121    
    0.2035084553359691        0.8580332212372759    
    0.2087266208574042        0.8668923630994615    
    0.2139447863788393        0.8758889288381576    
    0.2191629519002744        0.8850169860900060    
    0.2243811174217095        0.8942705245418400    
    0.2295992829431446        0.9036434603941196    
    0.2348174484645797        0.9131296408690962    
    0.2400356139860149        0.9227228487597585    
    0.2452537795074499        0.9324168070156303    
    0.2504719450288850        0.9422051833614467    
    0.2556901105503201        0.9520815949446858    
    0.2609082760717553        0.9620396130079758    
    0.2661264415931904        0.9720727675823181    
    0.2713446071146255        0.9821745521971121    
    0.2765627726360606        0.9923384286029160    
    0.2817809381574957         1.002557831502905    
    0.2869991036789308         1.012826173288990    
    0.2922172692003659         1.023136848778535    
    0.2974354347218010         1.033483239947659    
    0.3026536002432361         1.043858720657105    
    0.3078717657646712         1.054256661366655    
    0.3130899312861063         1.064670433834148    
    0.3183080968075414         1.075093415795106    
    0.3235262623289765         1.085518995619069    
    0.3287444278504116         1.095940576938740    
    0.3339625933718467         1.106351583248070    
    0.3391807588932819         1.116745462465491    
    0.3443989244147170         1.127115691458491    
    0.3496170899361521         1.137455780525837    
    0.3548352554575872         1.147759277833750    
    0.3600534209790223         1.158019773802409    
    0.3652715865004574         1.168230905439239    
    0.3704897520218925         1.178386360615461    
    0.3757079175433276         1.188479882282481    
    0.3809260830647627         1.198505272624738    
    0.3861442485861978         1.208456397145720    
    0.3913624141076329         1.218327188683918    
    0.3965805796290680         1.228111651355567    
    0.4017987451505031         1.237803864421129    
    0.4070169106719382         1.247397986072500    
    0.4122350761933734         1.256888257138067    
    0.4174532417148085         1.266269004702799    
    0.4226714072362435         1.275534645640654    
    0.4278895727576786         1.284679690056672    
    0.4331077382791138         1.293698744636232    
    0.4383259038005489         1.302586515899033    
    0.4435440693219840         1.311337813355481    
    0.4487622348434191         1.319947552563243    
    0.4539804003648542         1.328410758081855    
    0.4591985658862893         1.336722566323356    
    0.4644167314077244         1.344878228297046    
    0.4696348969291595         1.352873112246566    
    0.4748530624505946         1.360702706177622    
    0.4800712279720297         1.368362620274764    
    0.4852893934934648         1.375848589205754    
    0.4905075590148999         1.383156474312202    
    0.4957257245363350         1.390282265685216    
    0.5009438900577701         1.397222084124955    
    0.5061620555792052         1.403972182983108    
    0.5113802211006403         1.410528949887372    
    0.5165983866220755         1.416888908347248    
    0.5218165521435105         1.423048719240424    
    0.5270347176649457         1.429005182179296    
    0.5322528831863808         1.434755236757184    
    0.5374710487078158         1.440295963673966    
    0.5426892142292510         1.445624585740973    
    0.5479073797506860         1.450738468765104    
    0.5531255452721212         1.455635122312206    
    0.5583437107935563         1.460312200349936    
    0.5635618763149914         1.464767501770400    
    0.5687800418364265         1.468998970792989    
    0.5739982073578616         1.473004697247952    
    0.5792163728792967         1.476782916741358    
    0.5844345384007318         1.480332010702202    
    0.5896527039221670         1.483650506312541    
    0.5948708694436020         1.486737076321640    
    0.6000890349650372         1.489590538745212    
    0.6053072004864722         1.492209856450960    
    0.6105253660079073         1.494594136631736    
    0.6157435315293425         1.496742630167677    
    0.6209616970507775         1.498654730878888    
    0.6261798625722127         1.500329974670225    
    0.6313980280936478         1.501768038569903    
    0.6366161936150828         1.502968739663725    
    0.6418343591365180         1.503932033926795    
    0.6470525246579530         1.504658014954722    
    0.6522706901793882         1.505146912596343    
    0.6574888557008233         1.505399091490124    
    0.6627070212222584         1.505415049506466    
    0.6679251867436935         1.505195416098205    
    0.6731433522651286         1.504740950561683    
    0.6783615177865637         1.504052540210840    
    0.6835796833079988         1.503131198466835    
    0.6887978488294340         1.501978062865779    
    0.6940160143508690         1.500594392987213    
    0.6992341798723042         1.498981568306032    
    0.7044523453937392         1.497141085970611    
    0.7096705109151743         1.495074558509925    
    0.7148886764366095         1.492783711472508    
    0.7201068419580445         1.490270381000184    
    0.7253250074794797         1.487536511339455    
    0.7305431730009148         1.484584152293538    
    0.7357613385223498         1.481415456618068    
    0.7409795040437850         1.478032677363480    
    0.7461976695652200         1.474438165167131    
    0.7514158350866552         1.470634365498266    
    0.7566340006080903         1.466623815858894    
    0.7618521661295254         1.462409142943711    
    0.7670703316509605         1.457993059762202    
    0.7722884971723956         1.453378362726013    
    0.7775066626938307         1.448567928704921    
    0.7827248282152658         1.443564712138281    
    0.7879429937367010         1.438371741812462    
    0.7931611592581360         1.432992118007317    
    0.7983793247795712         1.427429009460847    
    0.8035974903010062         1.421685650284112    
    0.8088156558224413         1.415765336893200    
    0.8140338213438765         1.409671424931373    
    0.8192519868653115         1.403407326184404    
    0.8244701523867467         1.396976505492120    
    0.8296883179081818         1.390382477659122    
    0.8349064834296169         1.383628804367605    
    0.8401246489510520         1.376719091095197    
    0.8453428144724870         1.369656984040653    
    0.8505609799939222         1.362446167060236    
    0.8557791455153573         1.355090358617541    
    0.8609973110367924         1.347593308749470    
    0.8662154765582275         1.339958796051040    
    0.8714336420796626         1.332190624681597    
    0.8766518076010977         1.324292621395032    
    0.8818699731225328         1.316268632596442    
    0.8870881386439680         1.308122521427678    
    0.8923063041654030         1.299858164884136    
    0.8975244696868382         1.291479450965096    
    0.9027426352082732         1.282990275859814    
    0.9079608007297083         1.274394541171533    
    0.9131789662511435         1.265696151181452    
    0.9183971317725785         1.256899010154713    
    0.9236152972940137         1.248007019690271    
    0.9288334628154488         1.239024076116545    
    0.9340516283368839         1.229954067934581    
    0.9392697938583190         1.220800873310428    
    0.9444879593797540         1.211568357618331    
    0.9497061249011892         1.202260371036249    
    0.9549242904226243         1.192880746195164    
    0.9601424559440594         1.183433295883479    
    0.9653606214654945         1.173921810807858    
    0.9705787869869296         1.164350057411578    
    0.9757969525083647         1.154721775751607    
    0.9810151180297998         1.145040677435310    
    0.9862332835512350         1.135310443617788    
    0.9914514490726700         1.125534723060632    
    0.9966696145941052         1.115717130252864    
     1.001887780115540         1.105861243594728    
     1.007105945636975         1.095970603644890    
     1.012324111158410         1.086048711431597    
     1.017542276679846         1.076099026828102    
     1.022760442201281         1.066124966992807    
     1.027978607722716         1.056129904874223    
     1.033196773244151         1.046117167781036    
     1.038414938765586         1.036090036017261    
     1.043633104287021         1.026051741582510    
     1.048851269808456         1.016005466937385    
     1.054069435329891         1.005954343833671    
     1.059287600851326        0.9959014522092401    
     1.064505766372762        0.9858498191472376    
     1.069723931894197        0.9758024178992738    
     1.074942097415632        0.9657621669721580    
     1.080160262937067        0.9557319292775710    
     1.085378428458502        0.9457145113442028    
     1.090596593979937        0.9357126625915817    
     1.095814759501372        0.9257290746650080    
     1.101032925022807        0.9157663808307511    
     1.106251090544242        0.9058271554306606    
     1.111469256065677        0.8959139133953569    
     1.116687421587113        0.8860291098149788    
     1.121905587108548        0.8761751395665944    
     1.127123752629983        0.8663543369971778    
     1.132341918151418        0.8565689756610408    
     1.137560083672853        0.8468212681106402    
     1.142778249194288        0.8371133657395372    
     1.147996414715723        0.8274473586763312    
     1.153214580237158        0.8178252757283118    
     1.158432745758593        0.8082490843735248    
     1.163650911280029        0.7987206907999790    
     1.168869076801464        0.7892419399906214    
     1.174087242322899        0.7798146158527183    
     1.179305407844334        0.7704404413902656    
     1.184523573365769        0.7611210789179933    
     1.189741738887204        0.7518581303155806    
     1.194959904408639        0.7426531373206128    
     1.200178069930074        0.7335075818588678    
     1.205396235451509        0.7244228864103675    
     1.210614400972944        0.7154004144098424    
     1.215832566494380        0.7064414706800876    
     1.221050732015815        0.6975473018967129    
     1.226268897537250        0.6887190970828828    
     1.231487063058685        0.6799579881325161    
     1.236705228580120        0.6712650503604811    
     1.241923394101555        0.6626413030784007    
     1.247141559622990        0.6540877101945520    
     1.252359725144425        0.6456051808364144    
     1.257577890665860        0.6371945699946082    
     1.262796056187296        0.6288566791865788    
     1.268014221708731        0.6205922571388356    
     1.273232387230166        0.6124020004864028    
     1.278450552751601        0.6042865544879431    
     1.283668718273036        0.5962465137554659    
     1.288886883794471        0.5882824229973058    
     1.294105049315906        0.5803947777729500    
     1.299323214837341        0.5725840252586738    
     1.304541380358776        0.5648505650228491    
     1.309759545880211        0.5571947498094371    
     1.314977711401647        0.5496168863289270    
     1.320195876923082        0.5421172360554986    
     1.325414042444517        0.5346960160292091    
     1.330632207965952        0.5273533996624129    
     1.335850373487387        0.5200895175494316    
     1.341068539008822        0.5129044582783181    
     1.346286704530257        0.5057982692440980    
     1.351504870051692        0.4987709574625881    
     1.356723035573127        0.4918224903837766    
     1.361941201094563        0.4849527967042513    
     1.367159366615998        0.4781617671779812    
     1.372377532137433        0.4714492554244827    
     1.377595697658868        0.4648150787340140    
     1.382813863180303        0.4582590188692638    
     1.388032028701738        0.4517808228626960    
     1.393250194223173        0.4453802038093516    
     1.398468359744608        0.4390568416548197    
     1.403686525266043        0.4328103839767698    
     1.408904690787478        0.4266404467520190    
     1.414122856308914        0.4205466150229788    
     1.419341021830349        0.4145284437731701    
     1.424559187351784        0.4085854589006147    
     1.429777352873219        0.4027171582784637    
     1.434995518394654        0.3969230122595092    
     1.440213683916089        0.3912024631242403    
     1.445431849437524        0.3855549252355776    
     1.450650014958959        0.3799797859423974    
     1.455868180480394        0.3744764092659888    
     1.461086346001830        0.3690441401074096    
     1.466304511523265        0.3636823086436280    
     1.471522677044700        0.3583902351036991    
     1.476740842566135        0.3531672341251805    
     1.481959008087570        0.3480126187972463    
     1.487177173609005        0.3429257029025891    
     1.492395339130440        0.3379058005871639    
     1.497613504651875        0.3329522259555718    
     1.502831670173310        0.3280642921039318    
     1.508049835694745        0.3232413117842405    
     1.513268001216181        0.3184825978985376    
     1.518486166737616        0.3137874640182065    
     1.523704332259051        0.3091552247270510    
     1.528922497780486        0.3045851958078090    
     1.534140663301921        0.3000766944920383    
     1.539358828823356        0.2956290397193710    
     1.544576994344791        0.2912415523634054    
     1.549795159866226        0.2869135554638431    
     1.555013325387661        0.2826443744403376    
     1.560231490909097        0.2784333372980542    
     1.565449656430532        0.2742797748230957    
     1.570667821951967        0.2701830207664487    
     1.575885987473402        0.2661424120190953    
     1.581104152994837        0.2621572887775935    
     1.586322318516272        0.2582269947010379    
     1.591540484037707        0.2543508770592653    
     1.596758649559142        0.2505282868727685    
     1.601976815080577        0.2467585790447598    
     1.607194980602012        0.2430411124854253    
     1.612413146123448        0.2393752502285999    
     1.617631311644883        0.2357603595415574    
     1.622849477166318        0.2321958120277985    
     1.628067642687753        0.2286809837232185    
     1.633285808209188        0.2252152551857081    
     1.638503973730623        0.2217980115789344    
     1.643722139252058        0.2184286427500133    
     1.648940304773493        0.2151065433014810    
     1.654158470294928        0.2118311126577624    
     1.659376635816364        0.2086017551265492    
     1.664594801337799        0.2054178799550071    
     1.669812966859234        0.2022789013810273    
     1.675031132380669        0.1991842386799376    
     1.680249297902104        0.1961333162067335    
     1.685467463423539        0.1931255634339803    
     1.690685628944974        0.1901604149854270    
     1.695903794466409        0.1872373106658809    
     1.701121959987844        0.1843556954871838    
     1.706340125509279        0.1815150196905595    
     1.711558291030715        0.1787147387653028    
     1.716776456552150        0.1759543134643726    
     1.721994622073585        0.1732332098166357    
     1.727212787595020        0.1705508991360803    
     1.732430953116455        0.1679068580279369    
     1.737649118637890        0.1653005683922295    
     1.742867284159325        0.1627315174244950    
     1.748085449680760        0.1601991976139721    
     1.753303615202195        0.1577031067392012    
     1.758521780723631        0.1552427478615054    
     1.763739946245066        0.1528176293160894    
     1.768958111766501        0.1504272647010573    
     1.774176277287936        0.1480711728642676    
     1.779394442809371        0.1457488778884536    
     1.784612608330806        0.1434599090743722    
     1.789830773852241        0.1412038009222461    
     1.795048939373676        0.1389800931114197    
     1.800267104895111        0.1367883304786118    
     1.805485270416546        0.1346280629945502    
     1.810703435937982        0.1324988457392248    
     1.815921601459417        0.1304002388756955    
     1.821139766980852        0.1283318076227508    
     1.826357932502287        0.1262931222262862    
     1.831576098023722        0.1242837579295607    
     1.836794263545157        0.1223032949423182    
     1.842012429066592        0.1203513184089639    
     1.847230594588027        0.1184274183757621    
     1.852448760109462        0.1165311897571267    
     1.857666925630898        0.1146622323010580    
     1.862885091152333        0.1128201505538000    
     1.868103256673768        0.1110045538237691    
     1.873321422195203        0.1092150561447804    
     1.878539587716638        0.1074512762386318    
     1.883757753238073        0.1057128374770750    
     1.888975918759508        0.1039993678432777    
     1.894194084280943        0.1023104998927399    
     1.899412249802378        0.1006458707137498    
     1.904630415323813        0.9900512188741815E-01
     1.909848580845249        0.9738789944729838E-01
     1.915066746366684        0.9579385383866379E-01
     1.920284911888119        0.9422263987745069E-01
     1.925503077409554        0.9267391670892686E-01
     1.930721242930989        0.9114734776608722E-01
     1.935939408452424        0.8964260072782040E-01
     1.941157573973859        0.8815934747687997E-01
     1.946375739495294        0.8669726405768073E-01
     1.951593905016729        0.8525603063397953E-01
     1.956812070538165        0.8383533144637839E-01
     1.962030236059600        0.8243485476977319E-01
     1.967248401581035        0.8105429287070789E-01
     1.972466567102470        0.7969334196472966E-01
     1.977684732623905        0.7835170217365153E-01
     1.982902898145340        0.7702907748283043E-01
     1.988121063666775        0.7572517569846006E-01
     1.993339229188210        0.7443970840488871E-01
     1.998557394709645        0.7317239092203300E-01
     2.003775560231080        0.7192294226275936E-01
     2.008993725752516        0.7069108509041527E-01
     2.014211891273951        0.6947654567642261E-01
     2.019430056795386        0.6827905385804034E-01
     2.024648222316821        0.6709834299618876E-01
     2.029866387838256        0.6593414993341339E-01
     2.035084553359691        0.6478621495202215E-01
     2.040302718881126        0.6365428173236297E-01
     2.045520884402561        0.6253809731134891E-01
     2.050739049923997        0.6143741204104083E-01
     2.055957215445432        0.6035197954750170E-01
     2.061175380966866        0.5928155668982869E-01
     2.066393546488302        0.5822590351941448E-01
     2.071611712009737        0.5718478323945269E-01
     2.076829877531172        0.5615796216458003E-01
     2.082048043052607        0.5514520968082753E-01
     2.087266208574042        0.5414629820577626E-01
     2.092484374095477        0.5316100314902095E-01
     2.097702539616912        0.5218910287282834E-01
     2.102920705138347        0.5123037865304784E-01
     2.108138870659783        0.5028461464032222E-01
     2.113357036181218        0.4935159782153133E-01
     2.118575201702653        0.4843111798159837E-01
     2.123793367224088        0.4752296766545622E-01
     2.129011532745523        0.4662694214035090E-01
     2.134229698266958        0.4574283935843149E-01
     2.139447863788393        0.4487045991960165E-01
     2.144666029309828        0.4400960703475357E-01
     2.149884194831263        0.4316008648915894E-01
     2.155102360352699        0.4232170660623796E-01
     2.160320525874134        0.4149427821161124E-01
     2.165538691395569        0.4067761459743161E-01
     2.170756856917004        0.3987153148709780E-01
     2.175975022438439        0.3907584700014376E-01
     2.181193187959874        0.3829038161751337E-01
     2.186411353481309        0.3751495814712025E-01
     2.191629519002744        0.3674940168969870E-01
     2.196847684524180        0.3599353960502282E-01
     2.202065850045615        0.3524720147833010E-01
     2.207284015567049        0.3451021908711580E-01
     2.212502181088485        0.3378242636821711E-01
     2.217720346609920        0.3306365938519348E-01
     2.222938512131355        0.3235375629605715E-01
     2.228156677652790        0.3165255732123241E-01
     2.233374843174225        0.3095990471186646E-01
     2.238593008695660        0.3027564271843180E-01
     2.243811174217095        0.2959961755962084E-01
     2.249029339738530        0.2893167739157664E-01
     2.254247505259966        0.2827167227736800E-01
     2.259465670781401        0.2761945415679399E-01
     2.264683836302836        0.2697487681647785E-01
     2.269902001824271        0.2633779586024976E-01
     2.275120167345706        0.2570806867984446E-01
     2.280338332867141        0.2508555442585737E-01
     2.285556498388576        0.2447011397900527E-01
     2.290774663910011        0.2386160992167355E-01
     2.295992829431446        0.2325990650974380E-01
     2.301210994952882        0.2266486964471272E-01
     2.306429160474317        0.2207636684608255E-01
     2.311647325995752        0.2149426722403005E-01
     2.316865491517187        0.2091844145235332E-01
     2.322083657038622        0.2034876174169271E-01
     2.327301822560057        0.1978510181302021E-01
     2.332519988081492        0.1922733687140080E-01
     2.337738153602927        0.1867534358001382E-01
     2.342956319124363        0.1812900003444214E-01
     2.348174484645797        0.1758818573722028E-01
     2.353392650167232        0.1705278157264002E-01
     2.358610815688668        0.1652266978187517E-01
     2.363828981210103        0.1599773395100652E-01
     2.369047146731538        0.1547785931787660E-01
     2.374265312252973        0.1496293517547687E-01
     2.379483477774408        0.1445286240222560E-01
     2.384701643295843        0.1394756648963452E-01
     2.389919808817278        0.1344701249494980E-01
     2.395137974338713        0.1295121758559152E-01
     2.400356139860149        0.1246025865043534E-01
     2.405574305381584        0.1197427451581335E-01
     2.410792470903019        0.1149346356733217E-01
     2.416010636424454        0.1101807804735851E-01
     2.421228801945889        0.1054841628644440E-01
     2.426446967467324        0.1008481390634430E-01
     2.431665132988759        0.9627634762551929E-02
     2.436883298510194        0.9177262149340719E-02
     2.442101464031629        0.8734090595027484E-02
     2.447319629553065        0.8298518431048492E-02
     2.452537795074500        0.7870941217641762E-02
     2.457755960595934        0.7451746041753777E-02
     2.462974126117370        0.7041306660185705E-02
     2.468192291638805        0.6639979435675093E-02
     2.473410457160240        0.6248100000041440E-02
     2.478628622681675        0.5865980572777467E-02
     2.483846788203110        0.5493907862573666E-02
     2.489064953724546        0.5132141481432598E-02
     2.494283119245980        0.4780912804789802E-02
     2.499501284767415        0.4440424215567899E-02
     2.504719450288851        0.4110848674705817E-02
     2.509937615810286        0.3792329564989555E-02
     2.515155781331721        0.3484980758566428E-02
     2.520373946853156        0.3188886861070888E-02
     2.525592112374591        0.2904103586336890E-02
     2.530810277896026        0.2630658214636513E-02
     2.536028443417461        0.2368550083288396E-02
     2.541246608938896        0.2117751049604093E-02
     2.546464774460331        0.1878205849521719E-02
     2.551682939981767        0.1649832245338798E-02
     2.556901105503202        0.1432520801937387E-02
     2.562119271024637        0.1226134030836674E-02
     2.567337436546072        0.1030504447675291E-02
     2.572555602067507        0.8454306897053595E-03
     2.577773767588942        0.6706699484394801E-03
     2.582991933110377        0.5059227539700228E-03
     2.588210098631812        0.3507997418579883E-03
     2.593428264153248        0.2047371432249122E-03
     2.598646429674683        0.6670118796431593E-04
     2.603864595196117         0.000000000000000    
  0  6  1  0  1.000000   #orbital l, n, z, is_polarized, population
 500    0.1366056301659167E-01     6.816620945279245     # npts, delta, cutoff
     0.000000000000000        0.3733046642643263    
    0.1366056301659167E-01    0.3737250939104391    