<preamble>

<basis_specs>
===============================================================================
Sc                   Z=  21    Mass=  44.956        Charge= 0.17977+309
Lmxo=2 Lmxkb= 2    BasisType=split      Semic=T
L=0  Nsemic=1  Cnfigmx=4
          i=1  nzeta=1  polorb=0  (3s)  (semicore shell)
            splnorm:   0.15000    
               vcte:    40.000    
               rinn:    2.8301    
               qcoe:    0.0000    
               qyuk:    0.0000    
               qwid:   0.10000E-01
                rcs:    3.1445    
            lambdas:    1.0000    
          i=2  nzeta=2  polorb=0  (4s)  (to be polarized non-perturbatively)
            splnorm:   0.15000    
               vcte:    40.000    
               rinn:    7.6468    
               qcoe:    0.0000    
               qyuk:    0.0000    
               qwid:   0.10000E-01
                rcs:    8.4965      6.2353    
            lambdas:    1.0000      1.0000    
L=1  Nsemic=1  Cnfigmx=4
          i=1  nzeta=1  polorb=0  (3p)  (semicore shell)
            splnorm:   0.15000    
               vcte:    40.000    
               rinn:    3.2081    
               qcoe:    0.0000    
               qyuk:    0.0000    
               qwid:   0.10000E-01
                rcs:    3.5609    
            lambdas:    1.0000    
          i=2  nzeta=1  polorb=0  (4p)  (non-perturbative polarization shell)
            splnorm:   0.15000    
               vcte:    40.000    
               rinn:    7.6545    
               qcoe:    0.0000    
               qyuk:    0.0000    
               qwid:   0.10000E-01
                rcs:    8.4965    
            lambdas:    1.0000    
L=2  Nsemic=0  Cnfigmx=3
          i=1  nzeta=2  polorb=0  (3d)
            splnorm:   0.15000    
               vcte:    40.000    
               rinn:    5.7024    
               qcoe:    0.0000    
               qyuk:    0.0000    
               qwid:   0.10000E-01
                rcs:    6.3297      4.1347    
            lambdas:    1.0000      1.0000    
-------------------------------------------------------------------------------
L=0  Nkbl=2  erefs: 0.17977+309 0.17977+309
L=1  Nkbl=2  erefs: 0.17977+309 0.17977+309
L=2  Nkbl=1  erefs: 0.17977+309
===============================================================================
</basis_specs>

<pseudopotential_header>
 Sc pb nrl pcec
 ONCVPSP-3.2017-10-31Hamann's oncvpsp                        
 3s 2.00  r= 1.36/3p 6.00  r= 1.36/3d 1.00  r= 1.66/                    3s:3p:3d:4s:
</pseudopotential_header>
</preamble>
Sc                            # Symbol
Sc                            # Label
   21                         # Atomic number
     11.0000000000                             # Valence charge
     44.9560000000        # Mass 
     148.371101792        # Self energy 
   2   7                      # Lmax for basis, no. of nl orbitals 
   2   6                      # Lmax for projectors, no. of nl KB projectors
# PAOs:__________________________
  0  3  1  0  2.000000   #orbital l, n, z, is_polarized, population
 500    0.6301602000137085E-02     3.144499398068405     # npts, delta, cutoff
     0.000000000000000        0.6292365119876653    
    0.6301602000137085E-02    0.6293703140519620    
    0.1260320400027417E-01    0.6298061080890479    
    0.1890480600041125E-01    0.6305319703199453    
    0.2520640800054834E-01    0.6315471868574256    
    0.3150801000068543E-01    0.6328507651856191    
    0.3780961200082251E-01    0.6344414325368360    
    0.4411121400095959E-01    0.6363176372843383    
    0.5041281600109668E-01    0.6384775510568497    
    0.5671441800123377E-01    0.6409190713136393    
    0.6301602000137085E-01    0.6436398243213340    
    0.6931762200150793E-01    0.6466371685094685    
    0.7561922400164502E-01    0.6499081981900320    
    0.8192082600178210E-01    0.6534497476280615    
    0.8822242800191918E-01    0.6572583954504856    
    0.9452403000205627E-01    0.6613304693799396    
    0.1008256320021934        0.6656620512796856    
    0.1071272340023304        0.6702489824951579    
    0.1134288360024675        0.6750868694770603    
    0.1197304380026046        0.6801710896704559    
    0.1260320400027417        0.6854967976538343    
    0.1323336420028788        0.6910589315117885    
    0.1386352440030159        0.6968522194246821    
    0.1449368460031530        0.7028711864584850    
    0.1512384480032900        0.7091101615378888    
    0.1575400500034271        0.7155632845857703    
    0.1638416520035642        0.7222245138121860    
    0.1701432540037013        0.7290876331362210    
    0.1764448560038384        0.7361462597242546    
    0.1827464580039755        0.7433938516285256    
    0.1890480600041125        0.7508237155102708    
    0.1953496620042496        0.7584290144321635    
    0.2016512640043867        0.7662027757052838    
    0.2079528660045238        0.7741378987764622    
    0.2142544680046609        0.7822271631424118    
    0.2205560700047980        0.7904632362777883    
    0.2268576720049351        0.7988386815650012    
    0.2331592740050721        0.8073459662143326    
    0.2394608760052092        0.8159774691637113    
    0.2457624780053463        0.8247254889482696    
    0.2520640800054834        0.8335822515305988    
    0.2583656820056205        0.8425399180834300    
    0.2646672840057576        0.8515905927172692    
    0.2709688860058946        0.8607263301463161    
    0.2772704880060317        0.8699391432867555    
    0.2835720900061688        0.8792210107822815    
    0.2898736920063059        0.8885638844524461    
    0.2961752940064430        0.8979596966601142    
    0.3024768960065801        0.9074003675949431    
    0.3087784980067171        0.9168778124704847    
    0.3150801000068542        0.9263839486330111    
    0.3213817020069913        0.9359107025806813    
    0.3276833040071284        0.9454500168922002    
    0.3339849060072655        0.9549938570644272    
    0.3402865080074026        0.9645342182588090    
    0.3465881100075396        0.9740631319567535    
    0.3528897120076767        0.9835726725242810    
    0.3591913140078138        0.9930549636864777    
    0.3654929160079509         1.002502184912307    
    0.3717945180080880         1.011906577710429    
    0.3780961200082251         1.021260451836573    
    0.3843977220083621         1.030556191412988    
    0.3906993240084993         1.039786260960276    
    0.3970009260086363         1.048943211341739    
    0.4033025280087734         1.058019685620126    
    0.4096041300089105         1.067008424826320    
    0.4159057320090476         1.075902273639181    
    0.4222073340091847         1.084694185975374    
    0.4285089360093218         1.093377230487571    
    0.4348105380094588         1.101944595968976    
    0.4411121400095959         1.110389596661670    
    0.4474137420097330         1.118705677465727    
    0.4537153440098701         1.126886419045598    
    0.4600169460100072         1.134925542829762    
    0.4663185480101443         1.142816915899075    
    0.4726201500102813         1.150554555758837    
    0.4789217520104184         1.158132634989032    
    0.4852233540105555         1.165545485766811    
    0.4915249560106926         1.172787604254753    
    0.4978265580108297         1.179853654848152    
    0.5041281600109668         1.186738474274110    
    0.5104297620111039         1.193437075534961    
    0.5167313640112410         1.199944651688124    
    0.5230329660113781         1.206256579454511    
    0.5293345680115151         1.212368422647236    
    0.5356361700116522         1.218275935412222    
    0.5419377720117893         1.223975065272457    
    0.5482393740119264         1.229461955967493    
    0.5545409760120634         1.234732950079865    
    0.5608425780122005         1.239784591440303    
    0.5671441800123376         1.244613627303848    
    0.5734457820124748         1.249217010289112    
    0.5797473840126118         1.253591900073466    
    0.5860489860127489         1.257735664837174    
    0.5923505880128860         1.261645882450074    
    0.5986521900130231         1.265320341394967    
    0.6049537920131601         1.268757041422329    
    0.6112553940132972         1.271954193931797    
    0.6175569960134343         1.274910222076541    
    0.6238585980135714         1.277623760587214    
    0.6301602000137084         1.280093655313372    
    0.6364618020138455         1.282318962480631    
    0.6427634040139827         1.284298947663143    
    0.6490650060141198         1.286033084471544    
    0.6553666080142568         1.287521052957662    
    0.6616682100143939         1.288762737738204    
    0.6679698120145310         1.289758225840502    
    0.6742714140146681         1.290507804274425    
    0.6805730160148051         1.291011957335585    
    0.6868746180149422         1.291271363645836    
    0.6931762200150793         1.291286892937975    
    0.6994778220152164         1.291059602592624    
    0.7057794240153534         1.290590733935962    
    0.7120810260154906         1.289881708307970    
    0.7183826280156277         1.288934122911610    
    0.7246842300157648         1.287749746454122    
    0.7309858320159018         1.286330514592349    
    0.7372874340160389         1.284678525194629    
    0.7435890360161760         1.282796033432412    
    0.7498906380163131         1.280685446715298    
    0.7561922400164501         1.278349319483606    
    0.7624938420165872         1.275790347872991    
    0.7687954440167243         1.273011364265995    
    0.7750970460168615         1.270015331745525    
    0.7813986480169985         1.266805338465509    
    0.7877002500171356         1.263384591954037    
    0.7940018520172727         1.259756413364251    
    0.8003034540174098         1.255924231688213    
    0.8066050560175468         1.251891577948772    
    0.8129066580176839         1.247662079384197    
    0.8192082600178210         1.243239453640125    
    0.8255098620179581         1.238627502982865    
    0.8318114640180951         1.233830108804607    
    0.8381130660182322         1.228851225371733    
    0.8444146680183694         1.223694874277050    
    0.8507162700185065         1.218365139295203    
    0.8570178720186435         1.212866160665591    
    0.8633194740187806         1.207202129699430    
    0.8696210760189177         1.201377283490461    
    0.8759226780190548         1.195395899738056    
    0.8822242800191918         1.189262291690724    
    0.8885258820193289         1.182980803216994    
    0.8948274840194660         1.176555804009817    
    0.9011290860196031         1.169991684929808    
    0.9074306880197403         1.163292853491513    
    0.9137322900198773         1.156463729496203    
    0.9200338920200144         1.149508740813639    
    0.9263354940201515         1.142432319314373    
    0.9326370960202885         1.135238896953449    
    0.9389386980204256         1.127932902005137    
    0.9452403000205627         1.120518755448067    
    0.9515419020206998         1.113000867498751    
    0.9578435040208368         1.105383634291305    
    0.9641451060209739         1.097671434700072    
    0.9704467080211110         1.089868627301430    
    0.9767483100212482         1.081979547470526    
    0.9830499120213853         1.074008504607850    
    0.9893515140215223         1.065959779490683    
    0.9956531160216594         1.057837621743235    
     1.001954718021796         1.049646247419979    
     1.008256320021934         1.041389836695301    
     1.014557922022071         1.033072531653503    
     1.020859524022208         1.024698434172045    
     1.027161126022345         1.016271603891816    
     1.033462728022482         1.007796056267333    
     1.039764330022619        0.9992757606905953    
     1.046065932022756        0.9907146386818727    
     1.052367534022893        0.9821165621414544    
     1.058669136023030        0.9734853516560577    
     1.064970738023167        0.9648247748543904    
     1.071272340023304        0.9561385448064162    
     1.077573942023442        0.9474303184615840    
     1.083875544023579        0.9387036951213156    
     1.090177146023716        0.9299622149419500    
     1.096478748023853        0.9212093574645221    
     1.102780350023990        0.9124485401686784    
     1.109081952024127        0.9036831170481114    
     1.115383554024264        0.8949163772060941    
     1.121685156024401        0.8861515434695753    
     1.127986758024538        0.8773917710216610    
     1.134288360024675        0.8686401460521121    
     1.140589962024812        0.8598996844270126    
     1.146891564024950        0.8511733303783023    
     1.153193166025086        0.8424639552154266    
     1.159494768025224        0.8337743560610471    
     1.165796370025361        0.8251072546140109    
     1.172097972025498        0.8164652959426825    
     1.178399574025635        0.8078510473125493    
     1.184701176025772        0.7992669970522698    
     1.191002778025909        0.7907155534627148    
     1.197304380026046        0.7821990437739136    
     1.203605982026183        0.7737197131550474    
     1.209907584026320        0.7652797237828737    
     1.216209186026457        0.7568811539741858    
     1.222510788026594        0.7485259973877518    
     1.228812390026732        0.7402161623016775    
     1.235113992026869        0.7319534709716974    
     1.241415594027006        0.7237396590761337    
     1.247717196027143        0.7155763752530552    
     1.254018798027280        0.7074651807347342    
     1.260320400027417        0.6994075490850008    
     1.266622002027554        0.6914048660436752    
     1.272923604027691        0.6834584294832641    
     1.279225206027828        0.6755694494815253    
     1.285526808027965        0.6677390485137664    
     1.291828410028102        0.6599682617684600    
     1.298130012028240        0.6522580375883571    
     1.304431614028376        0.6446092380404310    
     1.310733216028514        0.6370226396107389    
     1.317034818028651        0.6294989339235193    
     1.323336420028788        0.6220387287721618    
     1.329638022028925        0.6146425497419192    
     1.335939624029062        0.6073108418890034    
     1.342241226029199        0.6000439689796512    
     1.348542828029336        0.5928422130484358    
     1.354844430029473        0.5857057781809686    
     1.361146032029610        0.5786348005961890    
     1.367447634029747        0.5716293603171383    
     1.373749236029884        0.5646894939818070    
     1.380050838030022        0.5578152068023854    
     1.386352440030159        0.5510064809847144    
     1.392654042030296        0.5442632761232790    
     1.398955644030433        0.5375855273846503    
     1.405257246030570        0.5309731451598151    
     1.411558848030707        0.5244260168783200    
     1.417860450030844        0.5179440084786823    
     1.424162052030981        0.5115269654028546    
     1.430463654031118        0.5051747133958047    
     1.436765256031255        0.4988870594225010    
     1.443066858031392        0.4926637924954458    
     1.449368460031530        0.4865046845243126    
     1.455670062031666        0.4804094911251470    
     1.461971664031804        0.4743779524063519    
     1.468273266031941        0.4684097937215564    
     1.474574868032078        0.4625047263971496    
     1.480876470032215        0.4566624484364114    
     1.487178072032352        0.4508826451993511    
     1.493479674032489        0.4451649900591169    
     1.499781276032626        0.4395091450354044    
     1.506082878032763        0.4339147614058285    
     1.512384480032900        0.4283814802960799    
     1.518686082033037        0.4229089332492783    
     1.524987684033174        0.4174967427752714    
     1.531289286033312        0.4121445228806468    
     1.537590888033449        0.4068518795797750    
     1.543892490033586        0.4016184113876768    
     1.550194092033723        0.3964437097953447    
     1.556495694033860        0.3913273597277930    
     1.562797296033997        0.3862689399856460    
     1.569098898034134        0.3812680236707909    
     1.575400500034271        0.3763241785962966    
     1.581702102034408        0.3714369676814465    
     1.588003704034545        0.3666059493322525    
     1.594305306034682        0.3618306778076665    
     1.600606908034820        0.3571107035723799    
     1.606908510034956        0.3524455736368295    
     1.613210112035094        0.3478348318827289    
     1.619511714035231        0.3432780193778908    
     1.625813316035368        0.3387746746798577    
     1.632114918035505        0.3343243341251150    
     1.638416520035642        0.3299265321084981    
     1.644718122035779        0.3255808013510068    
     1.651019724035916        0.3212866731610967    
     1.657321326036053        0.3170436776841064    
     1.663622928036190        0.3128513441336063    
     1.669924530036327        0.3087092010229668    
     1.676226132036464        0.3046167763891462    
     1.682527734036602        0.3005735979995618    
     1.688829336036739        0.2965791935589669    
     1.695130938036876        0.2926330908817453    
     1.701432540037013        0.2887348181013716    
     1.707734142037150        0.2848839038396249    
     1.714035744037287        0.2810798773773951    
     1.720337346037424        0.2773222688153718    
     1.726638948037561        0.2736106092262072    
     1.732940550037698        0.2699444308137938    
     1.739242152037835        0.2663232670485967    
     1.745543754037972        0.2627466528031645    
     1.751845356038110        0.2592141244810985    
     1.758146958038247        0.2557252201393078    
     1.764448560038384        0.2522794796088431    
     1.770750162038521        0.2488764446049966    
     1.777051764038658        0.2455156588351752    
     1.783353366038795        0.2421966680984210    
     1.789654968038932        0.2389190203821900    
     1.795956570039069        0.2356822659534311    
     1.802258172039206        0.2324859574451996    
     1.808559774039343        0.2293296499384859    
     1.814861376039481        0.2262129010396119    
     1.821162978039617        0.2231352709533616    
     1.827464580039755        0.2200963225519438    
     1.833766182039892        0.2170956214399661    
     1.840067784040029        0.2141327360155528    
     1.846369386040166        0.2112072375276882    
     1.852670988040303        0.2083187001299596    
     1.858972590040440        0.2054667009308167    
     1.865274192040577        0.2026508200404586    
     1.871575794040714        0.1998706406144676    
     1.877877396040851        0.1971257488943038    
     1.884178998040988        0.1944157342447717    
     1.890480600041125        0.1917401891885631    
     1.896782202041263        0.1890987094379775    
     1.903083804041400        0.1864908939239196    
     1.909385406041537        0.1839163448222704    
     1.915687008041674        0.1813746675777504    
     1.921988610041811        0.1788654709253293    
     1.928290212041948        0.1763883669092675    
     1.934591814042085        0.1739429708999315    
     1.940893416042222        0.1715289016084171    
     1.947195018042359        0.1691457810990767    
     1.953496620042496        0.1667932347999795    
     1.959798222042633        0.1644708915115144    
     1.966099824042771        0.1621783834130754    
     1.972401426042907        0.1599153460679413    
     1.978703028043045        0.1576814184264249    
     1.985004630043182        0.1554762428274124    
     1.991306232043319        0.1532994649982812    
     1.997607834043456        0.1511507340532404    
     2.003909436043593        0.1490297024902702    
     2.010211038043730        0.1469360261866471    
     2.016512640043867        0.1448693643931134    
     2.022814242044004        0.1428293797266917    
     2.029115844044141        0.1408157381623703    
     2.035417446044278        0.1388281090235559    
     2.041719048044416        0.1368661649714120    
     2.048020650044553        0.1349295819930473    
     2.054322252044690        0.1330180393887979    
     2.060623854044827        0.1311312197584602    
     2.066925456044964        0.1292688089865836    
     2.073227058045101        0.1274304962267782    
     2.079528660045238        0.1256159738855198    
     2.085830262045375        0.1238249376050907    
     2.092131864045512        0.1220570862457934    
     2.098433466045649        0.1203121218660904    
     2.104735068045786        0.1185897497041678    
     2.111036670045924        0.1168896781562721    
     2.117338272046061        0.1152116187561147    
     2.123639874046197        0.1135552861608336    
     2.129941476046334        0.1119203981213137    
     2.136243078046472        0.1103066754654611    
     2.142544680046609        0.1087138420763294    
     2.148846282046746        0.1071416248515286    
     2.155147884046883        0.1055897537008739    
     2.161449486047020        0.1040579615156426    
     2.167751088047157        0.1025459841396317    
     2.174052690047294        0.1010535603471989    
     2.180354292047431        0.9958043183457410E-01
     2.186655894047568        0.9812634317877253E-01
     2.192957496047705        0.9669104181319386E-01
     2.199259098047842        0.9527427800335320E-01
     2.205560700047980        0.9387580482183358E-01
     2.211862302048117        0.9249537812325086E-01
     2.218163904048254        0.9113275651914712E-01
     2.224465506048391        0.8978770135278091E-01
     2.230767108048528        0.8845997667341542E-01
     2.237068710048665        0.8714934921050860E-01
     2.243370312048802        0.8585558834788008E-01
     2.249671914048939        0.8457846609777078E-01
     2.255973516049076        0.8331775707518169E-01
     2.262275118049213        0.8207323847234207E-01
     2.268576720049350        0.8084469003319049E-01
     2.274878322049488        0.7963189402797045E-01
     2.281179924049625        0.7843463522790288E-01
     2.287481526049762        0.7725270087993143E-01
     2.293783128049899        0.7608588068161974E-01
     2.300084730050036        0.7493396675618813E-01
     2.306386332050173        0.7379675362770166E-01
     2.312687934050310        0.7267403819642382E-01
     2.318989536050447        0.7156561971433660E-01
     2.325291138050584        0.7047129976084035E-01
     2.331592740050721        0.6939088221863642E-01
     2.337894342050858        0.6832417324979866E-01
     2.344195944050996        0.6727098127204108E-01
     2.350497546051133        0.6623111693518285E-01
     2.356799148051270        0.6520439309781235E-01
     2.363100750051407        0.6419062480415690E-01
     2.369402352051544        0.6318962926115181E-01
     2.375703954051681        0.6220122581571324E-01
     2.382005556051818        0.6122523593221413E-01
     2.388307158051955        0.6026148317016530E-01
     2.394608760052092        0.5930979316208596E-01
     2.400910362052229        0.5836999359157487E-01
     2.407211964052366        0.5744191417157273E-01
     2.413513566052504        0.5652538662281333E-01
     2.419815168052641        0.5562024465246422E-01
     2.426116770052777        0.5472632393293043E-01
     2.432418372052915        0.5384346208084356E-01
     2.438719974053052        0.5297149863621197E-01
     2.445021576053189        0.5211027504175156E-01
     2.451323178053326        0.5125963462234754E-01
     2.457624780053463        0.5041942256467736E-01
     2.463926382053600        0.4958948589697856E-01
     2.470227984053737        0.4876967346895066E-01
     2.476529586053874        0.4795983593181733E-01
     2.482831188054011        0.4715982571846518E-01
     2.489132790054148        0.4636949702373785E-01
     2.495434392054285        0.4558870578483177E-01
     2.501735994054423        0.4481730966182008E-01
     2.508037596054560        0.4405516801827671E-01
     2.514339198054697        0.4330214190197539E-01
     2.520640800054834        0.4255809402571365E-01
     2.526942402054971        0.4182288874820893E-01
     2.533244004055108        0.4109639205512903E-01
     2.539545606055245        0.4037847154015629E-01
     2.545847208055382        0.3966899638614928E-01
     2.552148810055519        0.3896783734639721E-01
     2.558450412055656        0.3827486672593492E-01
     2.564752014055793        0.3758995836299252E-01
     2.571053616055931        0.3691298761043990E-01
     2.577355218056068        0.3624383131735291E-01
     2.583656820056205        0.3558236781064917E-01
     2.589958422056342        0.3492847687678719E-01
     2.596260024056479        0.3428203974359714E-01
     2.602561626056616        0.3364293906210068E-01
     2.608863228056753        0.3301105888846256E-01
     2.615164830056890        0.3238628466601044E-01
     2.621466432057027        0.3176850320732610E-01
     2.627768034057164        0.3115760267646716E-01
     2.634069636057301        0.3055347257119064E-01
     2.640371238057439        0.2995600370531754E-01
     2.646672840057576        0.2936508819117253E-01
     2.652974442057713        0.2878061942210546E-01
     2.659276044057850        0.2820249205515073E-01
     2.665577646057987        0.2763060199370808E-01
     2.671879248058124        0.2706484637037051E-01
     2.678180850058261        0.2650512352984093E-01
     2.684482452058398        0.2595133301194653E-01
     2.690784054058535        0.2540337553479169E-01
     2.697085656058672        0.2486115297796330E-01
     2.703387258058809        0.2432456836588426E-01
     2.709688860058947        0.2379352585127138E-01
     2.715990462059084        0.2326793069870328E-01
     2.722292064059221        0.2274768926833363E-01
     2.728593666059357        0.2223270899968168E-01
     2.734895268059495        0.2172289839557081E-01
     2.741196870059632        0.2121816700618699E-01
     2.747498472059769        0.2071842541325728E-01
     2.753800074059906        0.2022358521437690E-01
     2.760101676060043        0.1973355900743669E-01
     2.766403278060180        0.1924826037519519E-01
     2.772704880060317        0.1876760386998362E-01
     2.779006482060455        0.1829150499853761E-01
     2.785308084060591        0.1781988020697702E-01
     2.791609686060728        0.1735264686590670E-01
     2.797911288060865        0.1688972325565434E-01
     2.804212890061003        0.1643102855164901E-01
     2.810514492061140        0.1597648280993488E-01
     2.816816094061277        0.1552600695282252E-01
     2.823117696061414        0.1507952275468292E-01
     2.829419298061551        0.1463695282786484E-01
     2.835720900061688        0.1419822060876052E-01
     2.842022502061825        0.1376325034400471E-01
     2.848324104061962        0.1333196707687349E-01
     2.854625706062099        0.1290429664614913E-01
     2.860927308062236        0.1248016599539754E-01
     2.867228910062373        0.1205950552294747E-01
     2.873530512062511        0.1164225641686065E-01
     2.879832114062648        0.1122838332008557E-01
     2.886133716062785        0.1081788883008234E-01
     2.892435318062922        0.1041082560471586E-01
     2.898736920063059        0.1000730361741819E-01
     2.905038522063196        0.9607492120429143E-02
     2.911340124063333        0.9211617108126020E-02
     2.917641726063470        0.8819955529322229E-02
     2.923943328063607        0.8432827485123645E-02
     2.930244930063744        0.8050587432507699E-02
     2.936546532063881        0.7673615149400166E-02
     2.942848134064019        0.7302306976746100E-02
     2.949149736064156        0.6937067661381442E-02
     2.955451338064293        0.6578302981716580E-02
     2.961752940064430        0.6226413238886997E-02
     2.968054542064567        0.5881787629571126E-02
     2.974356144064704        0.5544799474335235E-02
     2.980657746064841        0.5215802250009934E-02
     2.986959348064978        0.4895126360873700E-02
     2.993260950065115        0.4583076577395177E-02
     2.999562552065252        0.4279930070167144E-02
     3.005864154065389        0.3985934968605588E-02
     3.012165756065527        0.3701309377579847E-02
     3.018467358065664        0.3426240789568746E-02
     3.024768960065801        0.3160885834549024E-02
     3.031070562065938        0.2905370314212220E-02
     3.037372164066075        0.2659789470904428E-02
     3.043673766066212        0.2424208444631060E-02
     3.049975368066349        0.2198662873135862E-02
     3.056276970066486        0.1983159589995987E-02
     3.062578572066623        0.1777677373018041E-02
     3.068880174066760        0.1582167688596555E-02
     3.075181776066897        0.1396555364616535E-02
     3.081483378067035        0.1220739100347174E-02
     3.087784980067172        0.1054591677614167E-02
     3.094086582067308        0.8979596550849112E-03
     3.100388184067446        0.7506621669444065E-03
     3.106689786067583        0.6124881152022259E-03
     3.112991388067720        0.4831903004915578E-03
     3.119292990067857        0.3624731777820229E-03
     3.125594592067994        0.2499655411806979E-03
     3.131896194068131        0.1451505634269230E-03
     3.138197796068268        0.4711783619470562E-04
     3.144499398068405         0.000000000000000    
  0  4  1  0  2.000000   #orbital l, n, z, is_polarized, population
 500    0.1702704109910401E-01     8.496493508452900     # npts, delta, cutoff
     0.000000000000000        0.2312393792383242    
    0.1702704109910401E-01    0.2315830835494923    
    0.3405408219820802E-01    0.2326236448481604    