<preamble>

<basis_specs>
===============================================================================
Tc                   Z=  43    Mass=  97.906        Charge= 0.17977+309
Lmxo=2 Lmxkb= 2    BasisType=split      Semic=T
L=0  Nsemic=1  Cnfigmx=5
          i=1  nzeta=1  polorb=0  (4s)  (semicore shell)
            splnorm:   0.15000    
               vcte:    40.000    
               rinn:    2.6381    
               qcoe:    0.0000    
               qyuk:    0.0000    
               qwid:   0.10000E-01
                rcs:    2.9312    
            lambdas:    1.0000    
          i=2  nzeta=2  polorb=0  (5s)  (to be polarized non-perturbatively)
            splnorm:   0.15000    
               vcte:    40.000    
               rinn:    6.9461    
               qcoe:    0.0000    
               qyuk:    0.0000    
               qwid:   0.10000E-01
                rcs:    7.7178      5.5848    
            lambdas:    1.0000      1.0000    
L=1  Nsemic=1  Cnfigmx=5
          i=1  nzeta=1  polorb=0  (4p)  (semicore shell)
            splnorm:   0.15000    
               vcte:    40.000    
               rinn:    3.0026    
               qcoe:    0.0000    
               qyuk:    0.0000    
               qwid:   0.10000E-01
                rcs:    3.3329    
            lambdas:    1.0000    
          i=2  nzeta=1  polorb=0  (5p)  (non-perturbative polarization shell)
            splnorm:   0.15000    
               vcte:    40.000    
               rinn:    6.9530    
               qcoe:    0.0000    
               qyuk:    0.0000    
               qwid:   0.10000E-01
                rcs:    7.7178    
            lambdas:    1.0000    
L=2  Nsemic=0  Cnfigmx=4
          i=1  nzeta=2  polorb=0  (4d)
            splnorm:   0.15000    
               vcte:    40.000    
               rinn:    4.7951    
               qcoe:    0.0000    
               qyuk:    0.0000    
               qwid:   0.10000E-01
                rcs:    5.3279      3.4763    
            lambdas:    1.0000      1.0000    
-------------------------------------------------------------------------------
L=0  Nkbl=2  erefs: 0.17977+309 0.17977+309
L=1  Nkbl=2  erefs: 0.17977+309 0.17977+309
L=2  Nkbl=1  erefs: 0.17977+309
===============================================================================
</basis_specs>

<pseudopotential_header>
 Tc pb nrl pcec
 ONCVPSP-3.2017-10-31Hamann's oncvpsp                        
 4s 2.00  r= 1.40/4p 6.00  r= 1.40/4d 5.00  r= 1.36/                    4s:4p:4d:5s:
</pseudopotential_header>
</preamble>
Tc                            # Symbol
Tc                            # Label
   43                         # Atomic number
     15.0000000000                             # Valence charge
     97.9060000000        # Mass 
     297.298202773        # Self energy 
   2   7                      # Lmax for basis, no. of nl orbitals 
   2   6                      # Lmax for projectors, no. of nl KB projectors
# PAOs:__________________________
  0  4  1  0  2.000000   #orbital l, n, z, is_polarized, population
 500    0.5874219927166360E-02     2.931235743656014     # npts, delta, cutoff
     0.000000000000000        0.2106803717655426    
    0.5874219927166360E-02    0.2108549756362254    
    0.1174843985433272E-01    0.2113944235758973    
    0.1762265978149908E-01    0.2122930818134023    
    0.2349687970866544E-01    0.2135503070337992    
    0.2937109963583180E-01    0.2151652020139923    
    0.3524531956299816E-01    0.2171366148553494    
    0.4111953949016452E-01    0.2194631397042721    
    0.4699375941733088E-01    0.2221431178392443    
    0.5286797934449724E-01    0.2251746389990757    
    0.5874219927166360E-01    0.2285555429265630    
    0.6461641919882996E-01    0.2322834211197721    
    0.7049063912599632E-01    0.2363556187875414    
    0.7636485905316268E-01    0.2407692370070694    
    0.8223907898032905E-01    0.2455211350818054    
    0.8811329890749540E-01    0.2506079330979221    
    0.9398751883466176E-01    0.2560260146776053    
    0.9986173876182812E-01    0.2617715299272921    
    0.1057359586889945        0.2678403985788537    
    0.1116101786161608        0.2742283133215979    
    0.1174843985433272        0.2809307433228151    
    0.1233586184704936        0.2879429379344324    
    0.1292328383976599        0.2952599305831947    
    0.1351070583248263        0.3028765428416308    
    0.1409812782519926        0.3107873886768930    
    0.1468554981791590        0.3189868788743900    
    0.1527297181063254        0.3274692256329744    
    0.1586039380334917        0.3362284473282494    
    0.1644781579606581        0.3452583734404119    
    0.1703523778878245        0.3545526496428438    
    0.1762265978149908        0.3641047430475012    
    0.1821008177421572        0.3739079476029498    
    0.1879750376693235        0.3839553896407274    
    0.1938492575964899        0.3942400335655225    
    0.1997234775236562        0.4047546876844699    
    0.2055976974508226        0.4154920101706788    
    0.2114719173779890        0.4264445151559326    
    0.2173461373051553        0.4376045789472945    
    0.2232203572323217        0.4489644463622026    
    0.2290945771594881        0.4605162371764167    
    0.2349687970866544        0.4722519526790409    
    0.2408430170138208        0.4841634823286357    
    0.2467172369409871        0.4962426105042829    
    0.2525914568681535        0.5084810233452923    
    0.2584656767953198        0.5208703156730740    
    0.2643398967224862        0.5334019979885428    
    0.2702141166496526        0.5460675035382717    
    0.2760883365768189        0.5588581954424662    
    0.2819625565039853        0.5717653738776826    
    0.2878367764311516        0.5847802833070999    
    0.2937109963583180        0.5978941197510176    
    0.2995852162854843        0.6110980380901428    
    0.3054594362126507        0.6243831593941261    
    0.3113336561398171        0.6377405782677094    
    0.3172078760669835        0.6511613702067736    
    0.3230820959941498        0.6646365989564668    
    0.3289563159213162        0.6781573238635948    
    0.3348305358484825        0.6917146072153341    
    0.3407047557756489        0.7052995215563383    
    0.3465789757028153        0.7189031569762602    
    0.3524531956299816        0.7325166283597160    
    0.3583274155571480        0.7461310825906980    
    0.3642016354843143        0.7597377057034717    
    0.3700758554114807        0.7733277299720162    
    0.3759500753386470        0.7868924409301123    
    0.3818242952658134        0.8004231843142295    
    0.3876985151929798        0.8139113729214432    
    0.3935727351201461        0.8273484933746970    
    0.3994469550473125        0.8407261127878144    
    0.4053211749744788        0.8540358853228061    
    0.4111953949016452        0.8672695586320912    
    0.4170696148288116        0.8804189801784748    
    0.4229438347559779        0.8934761034257869    
    0.4288180546831443        0.9064329938933574    
    0.4346922746103106        0.9192818350675849    
    0.4405664945374770        0.9320149341641470    
    0.4464407144646434        0.9446247277345451    
    0.4523149343918098        0.9571037871109368    
    0.4581891543189761        0.9694448236834136    
    0.4640633742461425        0.9816406940041872    
    0.4699375941733088        0.9936844047133210    
    0.4758118141004752         1.005569117280993    
    0.4816860340276415         1.017288152561509    
    0.4875602539548079         1.028834995154604    
    0.4934344738819743         1.040203297569843    
    0.4993086938091406         1.051386884190240    
    0.5051829137363070         1.062379755031572    
    0.5110571336634734         1.073176089294130    
    0.5169313535906397         1.083770248704005    
    0.5228055735178061         1.094156780641338    
    0.5286797934449724         1.104330421053302    
    0.5345540133721388         1.114286097149914    
    0.5404282332993051         1.124018929881134    
    0.5463024532264715         1.133524236194047    
    0.5521766731536378         1.142797531069259    
    0.5580508930808042         1.151834529336008    
    0.5639251130079705         1.160631147265833    
    0.5697993329351370         1.169183503944961    
    0.5756735528623033         1.177487922425964    
    0.5815477727894697         1.185540930659529    
    0.5874219927166360         1.193339262207548    
    0.5932962126438024         1.200879856739087    
    0.5991704325709687         1.208159860311031    
    0.6050446524981351         1.215176625435656    
    0.6109188724253014         1.221927710937536    
    0.6167930923524678         1.228410881602679    
    0.6226673122796341         1.234624107622863    
    0.6285415322068005         1.240565563838630    
    0.6344157521339669         1.246233628784558    
    0.6402899720611333         1.251626883540729    
    0.6461641919882997         1.256744110394547    
    0.6520384119154660         1.261584291317353    
    0.6579126318426324         1.266146606260446    
    0.6637868517697987         1.270430431275352    
    0.6696610716969651         1.274435336463470    
    0.6755352916241314         1.278161083760293    
    0.6814095115512978         1.281607624559628    
    0.6872837314784641         1.284775097183462    
    0.6931579514056305         1.287663824203177    
    0.6990321713327968         1.290274309617961    
    0.7049063912599632         1.292607235896503    
    0.7107806111871295         1.294663460887974    
    0.7166548311142960         1.296444014608511    
    0.7225290510414623         1.297950095909532    
    0.7284032709686287         1.299183069034109    
    0.7342774908957950         1.300144460067820    
    0.7401517108229614         1.300835953290490    
    0.7460259307501277         1.301259387435203    
    0.7519001506772941         1.301416751861042    
    0.7577743706044605         1.301310182645936    
    0.7636485905316268         1.300941958605997    
    0.7695228104587932         1.300314497247722    
    0.7753970303859595         1.299430350659335    
    0.7812712503131259         1.298292201347499    
    0.7871454702402922         1.296902858025544    
    0.7930196901674587         1.295265251359324    
    0.7988939100946250         1.293382429676630    
    0.8047681300217914         1.291257554646053    
    0.8106423499489577         1.288893896931032    
    0.8165165698761241         1.286294831824729    
    0.8223907898032904         1.283463834871205    
    0.8282650097304568         1.280404477478232    
    0.8341392296576231         1.277120422526988    
    0.8400134495847895         1.273615419983600    
    0.8458876695119558         1.269893302517483    
    0.8517618894391222         1.265957981131149    
    0.8576361093662885         1.261813440806036    
    0.8635103292934549         1.257463738776338    
    0.8693845492206212         1.252912998769196    
    0.8752587691477877         1.248165395309979    
    0.8811329890749541         1.243225166221333    
    0.8870072090021204         1.238096601923512    
    0.8928814289292868         1.232784041258819    
    0.8987556488564531         1.227291867361639    
    0.9046298687836195         1.221624503574276    
    0.9105040887107858         1.215786409411513    
    0.9163783086379522         1.209782076576616    
    0.9222525285651185         1.203616025031341    
    0.9281267484922849         1.197292799122280    
    0.9340009684194512         1.190816963765748    
    0.9398751883466177         1.184193100693217    
    0.9457494082737840         1.177425804759182    
    0.9516236282009504         1.170519680313132    
    0.9574978481281167         1.163479337637165    
    0.9633720680552831         1.156309389450676    
    0.9692462879824494         1.149014447483301    
    0.9751205079096158         1.141599119117302    
    0.9809947278367821         1.134068004100293    
    0.9868689477639485         1.126425691329229    
    0.9927431676911148         1.118676755706332    
    0.9986173876182812         1.110825755067627    
     1.004491607545448         1.102877227184519    
     1.010365827472614         1.094835686838949    
     1.016240047399780         1.086705622972316    
     1.022114267326947         1.078491495908524    
     1.027988487254113         1.070197734651190    
     1.033862707181279         1.061828734255200    
     1.039736927108446         1.053388853272535    
     1.045611147035612         1.044882411272416    
     1.051485366962778         1.036313686435635    
     1.057359586889945         1.027686913222910    
     1.063233806817111         1.019006280117104    
     1.069108026744278         1.010275927439046    
     1.074982246671444         1.001499945236798    
     1.080856466598610        0.9926823712479477    
     1.086730686525777        0.9838271889348000    
     1.092604906452943        0.9749383255919258    
     1.098479126380109        0.9660196505260539    
     1.104353346307276        0.9570749733076322    
     1.110227566234442        0.9481080420940095    
     1.116101786161608        0.9391225420236370    
     1.121976006088775        0.9301220936811668    
     1.127850226015941        0.9211102516330064    
     1.133724445943108        0.9120905030329615    
     1.139598665870274        0.9030662662977562    
     1.145472885797440        0.8940408898518809    
     1.151347105724607        0.8850176509418411    
     1.157221325651773        0.8759997545190986    
     1.163095545578939        0.8669903321917067    
     1.168969765506106        0.8579924412441733    
     1.174843985433272        0.8490090637253538    
     1.180718205360438        0.8400431056041926    
     1.186592425287605        0.8310973959928361    
     1.192466645214771        0.8221746864371446    
     1.198340865141937        0.8132776502740916    
     1.204215085069104        0.8044088820559963    
     1.210089304996270        0.7955708970412930    
     1.215963524923437        0.7867661307515121    
     1.221837744850603        0.7779969385943843    
     1.227711964777769        0.7692655955526143    
     1.233586184704936        0.7605742959382584    
     1.239460404632102        0.7519251532123145    
     1.245334624559268        0.7433201998692307    
     1.251208844486435        0.7347613873861139    
     1.257083064413601        0.7262505862362110    
     1.262957284340767        0.7177895859663646    
     1.268831504267934        0.7093800953380608    
     1.274705724195100        0.7010237425316411    
     1.280579944122267        0.6927220754132545    
     1.286454164049433        0.6844765618640948    
     1.292328383976599        0.6762885901713565    
     1.298202603903766        0.6681594694803645    
     1.304076823830932        0.6600904303073624    
     1.309951043758098        0.6520826251124572    
     1.315825263685265        0.6441371289311917    
     1.321699483612431        0.6362549400647225    
     1.327573703539597        0.6284369808296751    
     1.333447923466764        0.6206840983613006    
     1.339322143393930        0.6129970654750012    
     1.345196363321096        0.6053765815801839    
     1.351070583248263        0.5978232736610163    
     1.356944803175429        0.5903376972834600    
     1.362819023102596        0.5829203375810976    
     1.368693243029762        0.5755716104236295    
     1.374567462956928        0.5682918639450713    
     1.380441682884095        0.5610813802326901    
     1.386315902811261        0.5539403756850889    
     1.392190122738427        0.5468690006384906    
     1.398064342665594        0.5398673402267210    
     1.403938562592760        0.5329354192858147    
     1.409812782519926        0.5260732098091624    
     1.415687002447093        0.5192806389971749    
     1.421561222374259        0.5125575982362962    
     1.427435442301425        0.5059039513222190    
     1.433309662228592        0.4993195412111513    
     1.439183882155758        0.4928041907987533    
     1.445058102082925        0.4863577022852333    
     1.450932322010091        0.4799798561342636    
     1.456806541937257        0.4736704124536994    
     1.462680761864424        0.4674291123398648    
     1.468554981791590        0.4612556790372452    
     1.474429201718756        0.4551498187657715    
     1.480303421645923        0.4491112214781350    
     1.486177641573089        0.4431395617070117    
     1.492051861500255        0.4372344993063845    
     1.497926081427422        0.4313956802329931    
     1.503800301354588        0.4256227372704371    
     1.509674521281755        0.4199152907532777    
     1.515548741208921        0.4142729492471293    
     1.521422961136087        0.4086953102120634    
     1.527297181063254        0.4031819606400102    
     1.533171400990420        0.3977324776726915    
     1.539045620917586        0.3923464291968990    
     1.544919840844753        0.3870233744192290    
     1.550794060771919        0.3817628644200998    
     1.556668280699085        0.3765644426879835    
     1.562542500626252        0.3714276456346299    
     1.568416720553418        0.3663520030916027    
     1.574290940480584        0.3613370387886686    
     1.580165160407751        0.3563822708147693    
     1.586039380334917        0.3514872120619522    
     1.591913600262084        0.3466513706527675    
     1.597787820189250        0.3418742503517103    
     1.603662040116416        0.3371553509611579    
     1.609536260043583        0.3324941687022409    
     1.615410479970749        0.3278901965811473    
     1.621284699897915        0.3233429247413152    
     1.627158919825082        0.3188518408019221    
     1.633033139752248        0.3144164301831077    
     1.638907359679415        0.3100361764183361    
     1.644781579606581        0.3057105614543105    
     1.650655799533747        0.3014390659388410    
     1.656530019460914        0.2972211694970059    
     1.662404239388080        0.2930563509960082    
     1.668278459315246        0.2889440887991013    
     1.674152679242413        0.2848838610089034    
     1.680026899169579        0.2808751457004269    
     1.685901119096745        0.2769174211441902    
     1.691775339023912        0.2730101660197768    
     1.697649558951078        0.2691528596199933    
     1.703523778878244        0.2653449820460879    
     1.709397998805411        0.2615860143942974    
     1.715272218732577        0.2578754389339427    
     1.721146438659743        0.2542127392773722    
     1.727020658586910        0.2505974005420652    
     1.732894878514076        0.2470289095051902    
     1.738769098441242        0.2435067547506926    
     1.744643318368409        0.2400304268093502    
     1.750517538295575        0.2365994182920038    
     1.756391758222742        0.2332132240161057    
     1.762265978149908        0.2298713411258600    
     1.768140198077074        0.2265732692061985    
     1.774014418004241        0.2233185103908556    
     1.779888637931407        0.2201065694645526    
     1.785762857858574        0.2169369539596953    
     1.791637077785740        0.2138091742477149    
     1.797511297712906        0.2107227436252222    
     1.803385517640073        0.2076771783951258    
     1.809259737567239        0.2046719979429626    
     1.815133957494405        0.2017067248086290    
     1.821008177421572        0.1987808847535547    
     1.826882397348738        0.1958940068235993    
     1.832756617275904        0.1930456234077838    
     1.838630837203071        0.1902352702930452    
     1.844505057130237        0.1874624867150789    
     1.850379277057403        0.1847268154054960    
     1.856253496984570        0.1820278026354013    
     1.862127716911736        0.1793649982555272    
     1.868001936838902        0.1767379557330447    
     1.873876156766069        0.1741462321851994    
     1.879750376693235        0.1715893884098642    
     1.885624596620402        0.1690669889131607    
     1.891498816547568        0.1665786019342470    
     1.897373036474734        0.1641237994673851    
     1.903247256401901        0.1617021572813566    
     1.909121476329067        0.1593132549364202    
     1.914995696256233        0.1569566757988394    
     1.920869916183400        0.1546320070530978    
     1.926744136110566        0.1523388397118420    
     1.932618356037733        0.1500767686237887    
     1.938492575964899        0.1478453924795406    
     1.944366795892065        0.1456443138154709    
     1.950241015819232        0.1434731390156314    
     1.956115235746398        0.1413314783120365    
     1.961989455673564        0.1392189457831322    
     1.967863675600731        0.1371351593506545    
     1.973737895527897        0.1350797407748154    
     1.979612115455063        0.1330523156481658    
     1.985486335382230        0.1310525133879149    
     1.991360555309396        0.1290799672269266    
     1.997234775236562        0.1271343142032743    
     2.003108995163729        0.1252151951487748    
     2.008983215090895        0.1233222546761994    
     2.014857435018062        0.1214551411654034    
     2.020731654945228        0.1196135067482456    
     2.026605874872394        0.1177970072927058    
     2.032480094799561        0.1160053023858972    
     2.038354314726727        0.1142380553162092    
     2.044228534653894        0.1124949330544353    
     2.050102754581060        0.1107756062342789    
     2.055976974508226        0.1090797491319597    
     2.061851194435393        0.1074070396451182    
     2.067725414362559        0.1057571592709013    
     2.073599634289725        0.1041297930835378    
     2.079473854216892        0.1025246297112327    
     2.085348074144058        0.1009413613124766    
     2.091222294071224        0.9937968355174329E-01
     2.097096513998391        0.9783929557471897E-01
     2.102970733925557        0.9631989998308106E-01
     2.108844953852723        0.9482120280877447E-01
     2.114719173779890        0.9334291348786286E-01
     2.120593393707056        0.9188474483394087E-01
     2.126467613634222        0.9044641301129624E-01
     2.132341833561389        0.8902763750764076E-01
     2.138216053488555        0.8762814110656475E-01
     2.144090273415721        0.8624764985961997E-01
     2.149964493342888        0.8488589305825980E-01
     2.155838713270054        0.8354260320546220E-01
     2.161712933197220        0.8221751598715388E-01
     2.167587153124387        0.8091037024339651E-01
     2.173461373051553        0.7962090793943570E-01
     2.179335592978719        0.7834887413658426E-01
     2.185209812905886        0.7709401696295025E-01
     2.191084032833052        0.7585608758404971E-01
     2.196958252760218        0.7463484017329262E-01
     2.202832472687385        0.7343003188241347E-01
     2.208706692614551        0.7224142281180515E-01
     2.214580912541718        0.7106877598079725E-01
     2.220455132468884        0.6991185729789476E-01
     2.226329352396050        0.6877043553098054E-01
     2.232203572323217        0.6764428227750251E-01
     2.238077792250383        0.6653317193465663E-01
     2.243952012177549        0.6543688166957526E-01
     2.249826232104716        0.6435519138955502E-01
     2.255700452031882        0.6328788371227659E-01
     2.261574671959049        0.6223474393609216E-01
     2.267448891886215        0.6119556001034961E-01
     2.273323111813381        0.6017012250581069E-01
     2.279197331740548        0.5915822458510053E-01
     2.285071551667714        0.5815966197324220E-01
     2.290945771594881        0.5717423292828869E-01
     2.296819991522047        0.5620173821203706E-01
     2.302694211449213        0.5524198106089711E-01
     2.308568431376380        0.5429476715678314E-01
     2.314442651303546        0.5335990459817826E-01
     2.320316871230712        0.5243720387130123E-01
     2.326191091157879        0.5152647782142001E-01
     2.332065311085045        0.5062754162431118E-01
     2.337939531012212        0.4974021275780111E-01
     2.343813750939378        0.4886431097350331E-01
     2.349687970866544        0.4799965826867968E-01
     2.355562190793711        0.4714607885829977E-01
     2.361436410720877        0.4630339914721338E-01
     2.367310630648043        0.4547144770248870E-01
     2.373184850575210        0.4465005522593570E-01
     2.379059070502376        0.4383905452677995E-01
     2.384933290429542        0.4303828049456402E-01
     2.390807510356709        0.4224757007214987E-01
     2.396681730283875        0.4146676222894044E-01
     2.402555950211041        0.4069569793427939E-01
     2.408430170138208        0.3993422013102658E-01
     2.414304390065374        0.3918217370935967E-01
     2.420178609992540        0.3843940548070172E-01
     2.426052829919707        0.3770576415187931E-01
     2.431927049846873        0.3698110029946346E-01
     2.437801269774039        0.3626526634430222E-01
     2.443675489701206        0.3555811652627080E-01
     2.449549709628372        0.3485950687917914E-01
     2.455423929555538        0.3416929520590347E-01
     2.461298149482705        0.3348734105370975E-01
     2.467172369409871        0.3281350568977527E-01
     2.473046589337037        0.3214765207691922E-01
     2.478920809264204        0.3148964484951890E-01
     2.484795029191370        0.3083935028963507E-01
     2.490669249118536        0.3019663630333839E-01
     2.496543469045703        0.2956137239723587E-01
     2.502417688972869        0.2893342965519811E-01
     2.508291908900036        0.2831268071528896E-01
     2.514166128827202        0.2769899974689580E-01
     2.520040348754368        0.2709226242806092E-01
     2.525914568681535        0.2649234592301412E-01
     2.531788788608701        0.2589912885989753E-01
     2.537663008535868        0.2531249130870350E-01
     2.543537228463034        0.2473231475940261E-01
     2.549411448390200        0.2415848210027178E-01
     2.555285668317367        0.2359087759642243E-01
     2.561159888244533        0.2302938686851288E-01
     2.567034108171699        0.2247389687167394E-01
     2.572908328098866        0.2192429587462031E-01
     2.578782548026032        0.2138047343895673E-01
     2.584656767953199        0.2084232039867831E-01
     2.590530987880365        0.2030972883985397E-01
     2.596405207807531        0.1978259208050926E-01
     2.602279427734698        0.1926080465069873E-01
     2.608153647661864        0.1874426227276063E-01
     2.614027867589030        0.1823286184176073E-01
     2.619902087516197        0.1772650140611943E-01
     2.625776307443363        0.1722508014841884E-01
     2.631650527370530        0.1672849836640180E-01
     2.637524747297696        0.1623665745414274E-01
     2.643398967224862        0.1574945988340032E-01
     2.649273187152029        0.1526680918515356E-01
     2.655147407079195        0.1478860993133217E-01
     2.661021627006361        0.1431476772954623E-01
     2.666895846933528        0.1384518953880532E-01
     2.672770066860694        0.1337978609575700E-01
     2.678644286787860        0.1291847949790393E-01
     2.684518506715027        0.1246121630452946E-01
     2.690392726642193        0.1200798254692901E-01
     2.696266946569359        0.1155881627943992E-01
     2.702141166496526        0.1111381513181880E-01
     2.708015386423692        0.1067313840553673E-01
     2.713889606350858        0.1023700452954244E-01
     2.719763826278025        0.9805685166065484E-02
     2.725638046205191        0.9379497232964015E-02
     2.731512266132357        0.8958793902049756E-02
     2.737386486059524        0.8543955346646223E-02
     2.743260705986690        0.8135379770586513E-02
     2.749134925913856        0.7733475045586715E-02
     2.755009145841023        0.7338651151811568E-02
     2.760883365768189        0.6951313501311964E-02
     2.766757585695355        0.6571857158627252E-02
     2.772631805622522        0.6200661933793001E-02
     2.778506025549688        0.5838088293399451E-02
     2.784380245476855        0.5484474022027390E-02
     2.790254465404021        0.5140131565279054E-02
     2.796128685331187        0.4805345971845736E-02
     2.802002905258354        0.4480373369019123E-02
     2.807877125185520        0.4165439901501895E-02
     2.813751345112686        0.3860741069752634E-02
     2.819625565039853        0.3566441408842545E-02
     2.825499784967019        0.3282674453280141E-02
     2.831374004894186        0.3009542937169249E-02
     2.837248224821352        0.2747119181843764E-02
     2.843122444748518        0.2495445624645808E-02
     2.848996664675685        0.2254535442090236E-02
     2.854870884602851        0.2024373217401163E-02
     2.860745104530017        0.1804915594816883E-02
     2.866619324457184        0.1596091848375232E-02
     2.872493544384350        0.1397804266042925E-02
     2.878367764311517        0.1209928201246969E-02
     2.884241984238683        0.1032311553007691E-02
     2.890116204165849        0.8647732593655074E-03
     2.895990424093016        0.7071000243535083E-03
     2.901864644020182        0.5590396828881230E-03
     2.907738863947348        0.4202875735307580E-03
     2.913613083874515        0.2904564043316114E-03
     2.919487303801681        0.1689993436868692E-03
     2.925361523728848        0.5493874643196681E-04
     2.931235743656014         0.000000000000000    
  0  5  1  0  2.000000   #orbital l, n, z, is_polarized, population
 500    0.1546661975020341E-01     7.717843255351499     # npts, delta, cutoff
     0.000000000000000        0.8986217714939362E-01
    0.1546661975020341E-01    0.9037356818768516E-01
    0.3093323950040681E-01    0.9191109720390073E-01