<preamble>

<basis_specs>
===============================================================================
W                    Z=  74    Mass=  183.84        Charge= 0.17977+309
Lmxo=2 Lmxkb= 3    BasisType=split      Semic=T
L=0  Nsemic=1  Cnfigmx=6
          i=1  nzeta=1  polorb=0  (5s)  (semicore shell)
            splnorm:   0.15000    
               vcte:    40.000    
               rinn:    2.6065    
               qcoe:    0.0000    
               qyuk:    0.0000    
               qwid:   0.10000E-01
                rcs:    2.8962    
            lambdas:    1.0000    
          i=2  nzeta=2  polorb=0  (6s)  (to be polarized non-perturbatively)
            splnorm:   0.15000    
               vcte:    40.000    
               rinn:    6.4049    
               qcoe:    0.0000    
               qyuk:    0.0000    
               qwid:   0.10000E-01
                rcs:    7.1094      5.1032    
            lambdas:    1.0000      1.0000    
L=1  Nsemic=1  Cnfigmx=6
          i=1  nzeta=1  polorb=0  (5p)  (semicore shell)
            splnorm:   0.15000    
               vcte:    40.000    
               rinn:    3.1099    
               qcoe:    0.0000    
               qyuk:    0.0000    
               qwid:   0.10000E-01
                rcs:    3.4554    
            lambdas:    1.0000    
          i=2  nzeta=1  polorb=0  (6p)  (non-perturbative polarization shell)
            splnorm:   0.15000    
               vcte:    40.000    
               rinn:    6.4049    
               qcoe:    0.0000    
               qyuk:    0.0000    
               qwid:   0.10000E-01
                rcs:    7.1094    
            lambdas:    1.0000    
L=2  Nsemic=0  Cnfigmx=5
          i=1  nzeta=2  polorb=0  (5d)
            splnorm:   0.15000    
               vcte:    40.000    
               rinn:    5.4840    
               qcoe:    0.0000    
               qyuk:    0.0000    
               qwid:   0.10000E-01
                rcs:    6.0933      4.0730    
            lambdas:    1.0000      1.0000    
-------------------------------------------------------------------------------
L=0  Nkbl=2  erefs: 0.17977+309 0.17977+309
L=1  Nkbl=2  erefs: 0.17977+309 0.17977+309
L=2  Nkbl=1  erefs: 0.17977+309
L=3  Nkbl=1  erefs: 0.17977+309
===============================================================================
</basis_specs>

<pseudopotential_header>
 W  pb nrl pcec
 ONCVPSP-3.2017-10-31Hamann's oncvpsp                        
 5s 2.00  r= 1.61/5p 6.00  r= 1.61/5d 4.00  r= 1.61/5f 0.00  r= 2.02/   5s:5p:5d:6s:
</pseudopotential_header>
</preamble>
W                             # Symbol
W                             # Label
   74                         # Atomic number
     14.0000000000                             # Valence charge
     183.840000000        # Mass 
     274.749956826        # Self energy 
   2   7                      # Lmax for basis, no. of nl orbitals 
   3   8                      # Lmax for projectors, no. of nl KB projectors
# PAOs:__________________________
  0  5  1  0  2.000000   #orbital l, n, z, is_polarized, population
 500    0.5803911501332526E-02     2.896151839164931     # npts, delta, cutoff
     0.000000000000000        0.7930095983251414    
    0.5803911501332526E-02    0.7930724446399621    
    0.1160782300266505E-01    0.7933163052166775    
    0.1741173450399758E-01    0.7937225776850898    
    0.2321564600533010E-01    0.7942909795874462    
    0.2901955750666263E-01    0.7950211253005165    
    0.3482346900799516E-01    0.7959125209739684    
    0.4062738050932768E-01    0.7969645640954969    
    0.4643129201066021E-01    0.7981765436970564    
    0.5223520351199273E-01    0.7995476407592240    
    0.5803911501332526E-01    0.8010769287248931    
    0.6384302651465779E-01    0.8027633740979236    
    0.6964693801599031E-01    0.8046058371183954    
    0.7545084951732284E-01    0.8066030725110952    
    0.8125476101865536E-01    0.8087537303055323    
    0.8705867251998789E-01    0.8110563567265064    
    0.9286258402132042E-01    0.8135093951544907    
    0.9866649552265294E-01    0.8161111871552239    
    0.1044704070239855        0.8188599735779186    
    0.1102743185253180        0.8217538957215161    
    0.1160782300266505        0.8247909965683760    
    0.1218821415279830        0.8279692220847905    
    0.1276860530293156        0.8312864225876380    
    0.1334899645306481        0.8347403541764957    
    0.1392938760319806        0.8383286802304681    
    0.1450977875333131        0.8420489729689368    
    0.1509016990346457        0.8458987150754255    
    0.1567056105359782        0.8498753013836915    
    0.1625095220373107        0.8539760406251437    
    0.1683134335386433        0.8581981572366091    
    0.1741173450399758        0.8625387932274500    
    0.1799212565413083        0.8669950101049582    
    0.1857251680426408        0.8715637908569313    
    0.1915290795439734        0.8762420419902637    
    0.1973329910453059        0.8810265956243374    
    0.2031369025466384        0.8859142116379650    
    0.2089408140479709        0.8909015798685539    
    0.2147447255493035        0.8959853223621456    
    0.2205486370506360        0.9011619956728955    
    0.2263525485519685        0.9064280932105269    
    0.2321564600533010        0.9117800476342460    
    0.2379603715546336        0.9172142332915231    
    0.2437642830559661        0.9227269687001241    
    0.2495681945572986        0.9283145190717074    
    0.2553721060586311        0.9339730988752496    
    0.2611760175599637        0.9396988744385131    
    0.2669799290612962        0.9454879665857273    
    0.2727838405626287        0.9513364533095754    
    0.2785877520639612        0.9572403724755767    
    0.2843916635652938        0.9631957245568519    
    0.2901955750666263        0.9691984753972528    
    0.2959994865679588        0.9752445590007678    
    0.3018033980692914        0.9813298803450801    
    0.3076073095706239        0.9874503182171077    
    0.3134112210719564        0.9936017280683117    
    0.3192151325732889        0.9997799448875179    
    0.3250190440746215         1.005980786088970    
    0.3308229555759540         1.012200054413269    
    0.3366268670772865         1.018433540838853    
    0.3424307785786190         1.024677027501616    
    0.3482346900799516         1.030926290620240    
    0.3540386015812841         1.037177103424783    
    0.3598425130826166         1.043425239086066    
    0.3656464245839491         1.049666473643335    
    0.3714503360852817         1.055896588927700    
    0.3772542475866142         1.062111375478817    
    0.3830581590879467         1.068306635452241    
    0.3888620705892792         1.074478185514941    
    0.3946659820906118         1.080621859726359    
    0.4004698935919443         1.086733512402495    
    0.4062738050932768         1.092809020960425    
    0.4120777165946093         1.098844288740700    
    0.4178816280959419         1.104835247805059    
    0.4236855395972744         1.110777861706934    
    0.4294894510986069         1.116668128232192    
    0.4352933625999394         1.122502082107631    
    0.4410972741012720         1.128275797674711    
    0.4469011856026045         1.133985391526070    
    0.4527050971039370         1.139627025102396    
    0.4585090086052696         1.145196907247242    
    0.4643129201066021         1.150691296717424    
    0.4701168316079346         1.156106504646679    
    0.4759207431092671         1.161438896960295    
    0.4817246546105997         1.166684896738481    
    0.4875285661119322         1.171840986526315    
    0.4933324776132647         1.176903710588111    
    0.4991363891145972         1.181869677104155    
    0.5049403006159298         1.186735560307808    
    0.5107442121172623         1.191498102561025    
    0.5165481236185948         1.196154116366413    
    0.5223520351199273         1.200700486314036    
    0.5281559466212599         1.205134170961239    
    0.5339598581225924         1.209452204643833    
    0.5397637696239249         1.213651699217079    
    0.5455676811252574         1.217729845724969    
    0.5513715926265900         1.221683915996440    
    0.5571755041279225         1.225511264167155    
    0.5629794156292550         1.229209328125658    
    0.5687833271305875         1.232775630882779    
    0.5745872386319201         1.236207781863215    
    0.5803911501332526         1.239503478118401    
    0.5861950616345851         1.242660505459747    
    0.5919989731359176         1.245676739511571    
    0.5978028846372502         1.248550146683038    
    0.6036067961385827         1.251278785058569    
    0.6094107076399152         1.253860805206262    
    0.6152146191412478         1.256294450904016    
    0.6210185306425803         1.258578059783078    
    0.6268224421439128         1.260710063888901    
    0.6326263536452453         1.262688990159257    
    0.6384302651465779         1.264513460819713    
    0.6442341766479104         1.266182193696580    
    0.6500380881492429         1.267694002447662    
    0.6558419996505754         1.269047796711145    
    0.6616459111519080         1.270242582173104    
    0.6674498226532405         1.271277460554217    
    0.6732537341545730         1.272151629516331    
    0.6790576456559055         1.272864382489651    
    0.6848615571572381         1.273415108421427    
    0.6906654686585706         1.273803291447073    
    0.6964693801599031         1.274028510484758    
    0.7022732916612356         1.274090438754615    
    0.7080772031625682         1.273988843223764    
    0.7138811146639007         1.273723583978473    
    0.7196850261652332         1.273294613524805    
    0.7254889376665657         1.272701976019221    
    0.7312928491678983         1.271945806430679    
    0.7370967606692308         1.271026329635826    
    0.7429006721705633         1.269943859448951    
    0.7487045836718959         1.268698797588424    
    0.7545084951732284         1.267291632581438    
    0.7603124066745609         1.265722938608899    
    0.7661163181758934         1.263993374292370    
    0.7719202296772260         1.262103681425045    
    0.7777241411785585         1.260054683648736    
    0.7835280526798910         1.257847285078931    
    0.7893319641812235         1.255482468880033    
    0.7951358756825561         1.252961295792863    
    0.8009397871838886         1.250284902616625    
    0.8067436986852211         1.247454500647478    
    0.8125476101865536         1.244471374075943    
    0.8183515216878862         1.241336878345367    
    0.8241554331892187         1.238052438473681    
    0.8299593446905512         1.234619547340697    
    0.8357632561918837         1.231039763943210    
    0.8415671676932163         1.227314711620164    
    0.8473710791945488         1.223446076250147    
    0.8531749906958813         1.219435604423469    
    0.8589789021972138         1.215285101638454    
    0.8647828136985464         1.210996430419955    
    0.8705867251998789         1.206571508170565    
    0.8763906367012114         1.202012305618222    
    0.8821945482025439         1.197320844760216    
    0.8879984597038765         1.192499196929282    
    0.8938023712052090         1.187549480849853    
    0.8996062827065415         1.182473860686396    
    0.9054101942078741         1.177274544085861    
    0.9112141057092066         1.171953780216294    
    0.9170180172105391         1.166513857803574    
    0.9228219287118716         1.160957103168254    
    0.9286258402132042         1.155285878264355    
    0.9344297517145367         1.149502578722002    
    0.9402336632158692         1.143609631895693    
    0.9460375747172017         1.137609494919950    
    0.9518414862185343         1.131504652774037    
    0.9576453977198668         1.125297616357408    
    0.9634493092211993         1.118990920577474    
    0.9692532207225318         1.112587122451201    
    0.9750571322238644         1.106088799222012    
    0.9808610437251969         1.099498546493426    
    0.9866649552265294         1.092818976380755    
    0.9924688667278619         1.086052715682180    
    0.9982727782291945         1.079202404070412    
     1.004076689730527         1.072270692306119    
     1.009880601231860         1.065260240474204    
     1.015684512733192         1.058173716244017    
     1.021488424234525         1.051013793154442    
     1.027292335735857         1.043783148924800    
     1.033096247237190         1.036484463792406    
     1.038900158738522         1.029120418877610    
     1.044704070239855         1.021693694577041    
     1.050507981741187         1.014206968985726    
     1.056311893242520         1.006662916348709    
     1.062115804743852        0.9990642055427219    
     1.067919716245185        0.9914134985884857    
     1.073723627746517        0.9837134491939867    
     1.079527539247850        0.9759667013291882    
     1.085331450749182        0.9681758878324309    
     1.091135362250515        0.9603436290490375    
     1.096939273751847        0.9524725315021583    
     1.102743185253180        0.9445651865961385    
     1.108547096754513        0.9366241693524985    
     1.114351008255845        0.9286520371787228    
     1.120154919757177        0.9206513286699328    
     1.125958831258510        0.9126245624433745    
     1.131762742759843        0.9045742360058184    
     1.137566654261175        0.8965028246536898    
     1.143370565762508        0.8884127804060464    
     1.149174477263840        0.8803065309700979    
     1.154978388765173        0.8721864787392597    
     1.160782300266505        0.8640549998235193    
     1.166586211767838        0.8559144431118892    
     1.172390123269170        0.8477671293668337    
     1.178194034770503        0.8396153503502767    
     1.183997946271835        0.8314613679810903    
     1.189801857773168        0.8233074135236726    
     1.195605769274500        0.8151556868073598    
     1.201409680775833        0.8070083554763983    
     1.207213592277165        0.7988675542700610    
     1.213017503778498        0.7907353843327100    
     1.218821415279830        0.7826139125533573    
     1.224625326781163        0.7745051709344204    
     1.230429238282496        0.7664111559893254    
     1.236233149783828        0.7583338281685732    
     1.242037061285161        0.7502751113139474    
     1.247840972786493        0.7422368921404803    
     1.253644884287826        0.7342210197458123    
     1.259448795789158        0.7262293051466034    
     1.265252707290491        0.7182635208416431    
     1.271056618791823        0.7103254004012675    
     1.276860530293156        0.7024166380827769    
     1.282664441794488        0.6945388884714981    
     1.288468353295821        0.6866937661471245    
     1.294272264797153        0.6788828453750649    
     1.300076176298486        0.6711076598224029    
     1.305880087799818        0.6633697022981893    
     1.311683999301151        0.6556704245178157    
     1.317487910802484        0.6480112368910064    
     1.323291822303816        0.6403935083333194    
     1.329095733805148        0.6328185661007852    
     1.334899645306481        0.6252876956473508    
     1.340703556807814        0.6178021405050389    
     1.346507468309146        0.6103631021863778    
     1.352311379810478        0.6029717401089271    
     1.358115291311811        0.5956291715417856    
     1.363919202813144        0.5883364715735767    
     1.369723114314476        0.5810946731019294    
     1.375527025815809        0.5739047668441993    
     1.381330937317141        0.5667677013690549    
     1.387134848818474        0.5596843831489365    
     1.392938760319806        0.5526556766331253    
     1.398742671821139        0.5456824043410941    
     1.404546583322471        0.5387653469761780    
     1.410350494823804        0.5319052435592532    
     1.416154406325136        0.5251027915821737    
     1.421958317826469        0.5183586471810080    
     1.427762229327801        0.5116734253286851    
     1.433566140829134        0.5050477000469391    
     1.439370052330466        0.4984820046374717    
     1.445173963831799        0.4919768319320279    
     1.450977875333131        0.4855326345612364    
     1.456781786834464        0.4791498252421586    
     1.462585698335797        0.4728287770841597    
     1.468389609837129        0.4665698239130299    
     1.474193521338462        0.4603732606132019    
     1.479997432839794        0.4542393434877716    
     1.485801344341127        0.4481682906361473    
     1.491605255842459        0.4421602823491987    
     1.497409167343792        0.4362154615215501    
     1.503213078845124        0.4303339340808751    
     1.509016990346457        0.4245157694339573    
     1.514820901847789        0.4187610009292517    
     1.520624813349122        0.4130696263356555    
     1.526428724850454        0.4074416083372916    
     1.532232636351787        0.4018768750440106    
     1.538036547853119        0.3963753205173217    
     1.543840459354452        0.3909368053116439    
     1.549644370855785        0.3855611570300075    
     1.555448282357117        0.3802481708924275    
     1.561252193858449        0.3749976102527949    
     1.567056105359782        0.3698092071722177    
     1.572860016861115        0.3646826632922868    
     1.578663928362447        0.3596176506732986    
     1.584467839863779        0.3546138126809872    
     1.590271751365112        0.3496707633582140    
     1.596075662866445        0.3447880872509616    
     1.601879574367777        0.3399653397074974    
     1.607683485869110        0.3352020498633119    
     1.613487397370442        0.3304977250668180    
     1.619291308871775        0.3258518554860910    
     1.625095220373107        0.3212639189909895    
     1.630899131874440        0.3167333859211978    
     1.636703043375772        0.3122597232129635    
     1.642506954877105        0.3078423978542443    
     1.648310866378437        0.3034808766910540    
     1.654114777879770        0.2991746261447586    
     1.659918689381102        0.2949231110315617    
     1.665722600882435        0.2907257947765776    
     1.671526512383767        0.2865821400111652    
     1.677330423885100        0.2824916090107012    
     1.683134335386433        0.2784536640886446    
     1.688938246887765        0.2744677677262857    
     1.694742158389098        0.2705333827770579    
     1.700546069890430        0.2666499726859128    
     1.706349981391763        0.2628170016902245    
     1.712153892893095        0.2590339350182276    
     1.717957804394428        0.2553002390770135    
     1.723761715895760        0.2516153816310601    
     1.729565627397093        0.2479788319744695    
     1.735369538898425        0.2443900610933265    
     1.741173450399758        0.2408485418208217    
     1.746977361901090        0.2373537489848893    
     1.752781273402423        0.2339051595486626    
     1.758585184903755        0.2305022527439073    
     1.764389096405088        0.2271445101975785    
     1.770193007906420        0.2238314160521160    
     1.775996919407753        0.2205624570792936    
     1.781800830909086        0.2173371227878728    
     1.787604742410418        0.2141549055255749    
     1.793408653911750        0.2110153005753686    
     1.799212565413083        0.2079178062462947    
     1.805016476914416        0.2048619239588026    
     1.810820388415748        0.2018471583253726    
     1.816624299917081        0.1988730172260438    
     1.822428211418413        0.1959390118792322    
     1.828232122919746        0.1930446569078930    
     1.834036034421078        0.1901894704015767    
     1.839839945922411        0.1873729739740846    
     1.845643857423743        0.1845946928170034    
     1.851447768925076        0.1818541557493905    
     1.857251680426408        0.1791508952637829    
     1.863055591927741        0.1764844475685088    
     1.868859503429073        0.1738543526263541    
     1.874663414930406        0.1712601541901040    
     1.880467326431738        0.1687013998347847    
     1.886271237933071        0.1661776409868142    
     1.892075149434403        0.1636884329499705    
     1.897879060935736        0.1612333349288022    
     1.903682972437069        0.1588119100491324    
     1.909486883938401        0.1564237253759645    
     1.915290795439734        0.1540683519286515    
     1.921094706941066        0.1517453646939529    
     1.926898618442399        0.1494543426365747    
     1.932702529943731        0.1471948687075245    
     1.938506441445064        0.1449665298501287    
     1.944310352946396        0.1427689170043167    
     1.950114264447729        0.1406016251087330    
     1.955918175949061        0.1384642531010360    
     1.961722087450394        0.1363564039161992    
     1.967525998951726        0.1342776844834002    
     1.973329910453059        0.1322277057210618    
     1.979133821954391        0.1302060825303865    
     1.984937733455724        0.1282124337872037    
     1.990741644957057        0.1262463823326679    
     1.996545556458389        0.1243075549624042    
     2.002349467959721        0.1223955824144088    
     2.008153379461054        0.1205100993555457    
     2.013957290962387        0.1186507443670942    
     2.019761202463719        0.1168171599290272    
     2.025565113965051        0.1150089924032603    
     2.031369025466384        0.1132258920157522    
     2.037172936967717        0.1114675128378116    
     2.042976848469049        0.1097335127663978    
     2.048780759970382        0.1080235535035666    
     2.054584671471714        0.1063373005350094    
     2.060388582973047        0.1046744231079010    
     2.066192494474379        0.1030345942079985    
     2.071996405975712        0.1014174905360150    
     2.077800317477045        0.9982279248331703E-01
     2.083604228978377        0.9825018410699955E-01
     2.089408140479709        0.9669935310443908E-01
     2.095212051981042        0.9516999078723984E-01
     2.101015963482374        0.9366179205468740E-01
     2.106819874983707        0.9217445536666571E-01
     2.112623786485039        0.9070768271621800E-01
     2.118427697986372        0.8926117960162609E-01
     2.124231609487705        0.8783465499812186E-01
     2.130035520989037        0.8642782132919556E-01
     2.135839432490370        0.8504039443762536E-01
     2.141643343991702        0.8367209355617160E-01
     2.147447255493034        0.8232264127798626E-01
     2.153251166994367        0.8099176352676411E-01
     2.159055078495700        0.7967918952665635E-01
     2.164858989997032        0.7838465177197572E-01
     2.170662901498365        0.7710788599670594E-01
     2.176466812999697        0.7584863114383396E-01
     2.182270724501030        0.7460662933454544E-01
     2.188074636002362        0.7338162583726668E-01
     2.193878547503695        0.7217336903660199E-01
     2.199682459005027        0.7098161040216683E-01
     2.205486370506360        0.6980610445735939E-01
     2.211290282007692        0.6864660874805252E-01
     2.217094193509025        0.6750288381122271E-01
     2.222898105010358        0.6637469314356506E-01
     2.228702016511690        0.6526180317006577E-01
     2.234505928013022        0.6416398321262973E-01
     2.240309839514355        0.6308100545862415E-01
     2.246113751015688        0.6201264492948862E-01
     2.251917662517020        0.6095867944936571E-01
     2.257721574018352        0.5991888961378520E-01
     2.263525485519685        0.5889305875841751E-01
     2.269329397021018        0.5788097292781943E-01
     2.275133308522350        0.5688242084431109E-01
     2.280937220023683        0.5589719387689672E-01
     2.286741131525015        0.5492508601036201E-01
     2.292545043026348        0.5396589381436446E-01
     2.298348954527680        0.5301941641266428E-01
     2.304152866029013        0.5208545545248493E-01
     2.309956777530346        0.5116381507396772E-01
     2.315760689031678        0.5025430187985614E-01
     2.321564600533010        0.4935672490515850E-01
     2.327368512034343        0.4847089558704798E-01
     2.333172423535675        0.4759662773488824E-01
     2.338976335037008        0.4673373750040972E-01
     2.344780246538340        0.4588204334812294E-01
     2.350584158039673        0.4504136602573521E-01
     2.356388069541006        0.4421152853484810E-01
     2.362191981042338        0.4339235610179050E-01
     2.367995892543671        0.4258367614865975E-01
     2.373799804045003        0.4178531826455170E-01
     2.379603715546335        0.4099711417688569E-01
     2.385407627047668        0.4021889772299633E-01
     2.391211538549001        0.3945050482187697E-01
     2.397015450050333        0.3869177344617864E-01
     2.402819361551666        0.3794254359435605E-01
     2.408623273052998        0.3720265726297762E-01
     2.414427184554331        0.3647195841928857E-01
     2.420231096055663        0.3575029297394246E-01
     2.426035007556996        0.3503750875400841E-01
     2.431838919058328        0.3433345547611182E-01
     2.437642830559661        0.3363798471977553E-01
     2.443446742060993        0.3295094990100832E-01
     2.449250653562326        0.3227220624607179E-01
     2.455054565063659        0.3160161076552543E-01
     2.460858476564991        0.3093902222841622E-01
     2.466662388066323        0.3028430113667227E-01
     2.472466299567656        0.2963730969974697E-01
     2.478270211068989        0.2899791180944929E-01
     2.484074122570321        0.2836597301503670E-01
     2.489878034071654        0.2774136049848170E-01
     2.495681945572986        0.2712394304992605E-01
     2.501485857074319        0.2651359104339110E-01
     2.507289768575651        0.2591017641267751E-01
     2.513093680076984        0.2531357262750576E-01
     2.518897591578316        0.2472365466986645E-01
     2.524701503079649        0.2414029901052718E-01
     2.530505414580981        0.2356338358580432E-01
     2.536309326082314        0.2299278777452534E-01
     2.542113237583647        0.2242839237520439E-01
     2.547917149084979        0.2187007958346017E-01
     2.553721060586311        0.2131773296956416E-01
     2.559524972087644        0.2077123745625374E-01
     2.565328883588976        0.2023047929673363E-01
     2.571132795090309        0.1969534605287254E-01
     2.576936706591642        0.1916572657365255E-01
     2.582740618092974        0.1864151097374080E-01
     2.588544529594307        0.1812259061231094E-01
     2.594348441095639        0.1760885807205272E-01
     2.600152352596972        0.1710020713837117E-01
     2.605956264098304        0.1659653277880891E-01
     2.611760175599636        0.1609773112262749E-01
     2.617564087100969        0.1560369944059167E-01
     2.623367998602302        0.1511433612501818E-01
     2.629171910103634        0.1462954068286808E-01
     2.634975821604967        0.1414921405302365E-01
     2.640779733106299        0.1367326105457692E-01
     2.646583644607632        0.1320159804179818E-01
     2.652387556108964        0.1273416613036976E-01
     2.658191467610297        0.1227094635100621E-01
     2.663995379111630        0.1181197232116701E-01
     2.669799290612962        0.1135733787218795E-01
     2.675603202114294        0.1090719917072868E-01
     2.681407113615627        0.1046177215861132E-01
     2.687211025116960        0.1002132661064392E-01
     2.693014936618292        0.9586178096560252E-02
     2.698818848119624        0.9156678907297492E-02
     2.704622759620957        0.8733208730133500E-02
     2.710426671122290        0.8316165607002959E-02
     2.716230582623622        0.7905957510876209E-02
     2.722034494124955        0.7502994727761180E-02
     2.727838405626287        0.7107683128852306E-02
     2.733642317127620        0.6720418348568488E-02
     2.739446228628952        0.6341580840557273E-02
     2.745250140130285        0.5971531757705188E-02
     2.751054051631617        0.5610609588227974E-02
     2.756857963132950        0.5259127473892082E-02
     2.762661874634282        0.4917371135485359E-02
     2.768465786135615        0.4585597332784537E-02
     2.774269697636948        0.4264032790145365E-02
     2.780073609138280        0.3952873523458014E-02
     2.785877520639612        0.3652284509035280E-02
     2.791681432140945        0.3362399639493261E-02
     2.797485343642277        0.3083321915540352E-02
     2.803289255143610        0.2815123825459962E-02
     2.809093166644943        0.2557847865549977E-02
     2.814897078146275        0.2311507154290648E-02
     2.820700989647608        0.2076086089670050E-02
     2.826504901148940        0.1851540991293325E-02
     2.832308812650273        0.1637800653889079E-02
     2.838112724151605        0.1434766711440777E-02
     2.843916635652938        0.1242313661375176E-02
     2.849720547154270        0.1060288305624671E-02
     2.855524458655603        0.8885081855057982E-03
     2.861328370156935        0.7267582160757460E-03
     2.867132281658268        0.5747838946015927E-03
     2.872936193159600        0.4322773860304735E-03
     2.878740104660933        0.2988467968237346E-03
     2.884544016162265        0.1739377955394528E-03
     2.890347927663598        0.5655738660656325E-04
     2.896151839164931         0.000000000000000    
  0  6  1  0  2.000000   #orbital l, n, z, is_polarized, population
 500    0.1424738535542294E-01     7.109445292356045     # npts, delta, cutoff
     0.000000000000000        0.4717238928659676    
    0.1424738535542294E-01    0.4719192923610883    