<preamble>

<basis_specs>
===============================================================================
Ag                   Z=  47    Mass=  107.87        Charge= 0.17977+309
Lmxo=2 Lmxkb= 2    BasisType=split      Semic=T
L=0  Nsemic=1  Cnfigmx=5
          i=1  nzeta=1  polorb=0  (4s)  (semicore shell)
            splnorm:   0.15000    
               vcte:    40.000    
               rinn:    2.3294    
               qcoe:    0.0000    
               qyuk:    0.0000    
               qwid:   0.10000E-01
                rcs:    2.5882    
            lambdas:    1.0000    
          i=2  nzeta=2  polorb=0  (5s)  (to be polarized non-perturbatively)
            splnorm:   0.15000    
               vcte:    40.000    
               rinn:    6.6467    
               qcoe:    0.0000    
               qyuk:    0.0000    
               qwid:   0.10000E-01
                rcs:    7.3852      5.2537    
            lambdas:    1.0000      1.0000    
L=1  Nsemic=1  Cnfigmx=5
          i=1  nzeta=1  polorb=0  (4p)  (semicore shell)
            splnorm:   0.15000    
               vcte:    40.000    
               rinn:    2.6408    
               qcoe:    0.0000    
               qyuk:    0.0000    
               qwid:   0.10000E-01
                rcs:    2.9312    
            lambdas:    1.0000    
          i=2  nzeta=1  polorb=0  (5p)  (non-perturbative polarization shell)
            splnorm:   0.15000    
               vcte:    40.000    
               rinn:    6.6533    
               qcoe:    0.0000    
               qyuk:    0.0000    
               qwid:   0.10000E-01
                rcs:    7.3852    
            lambdas:    1.0000    
L=2  Nsemic=0  Cnfigmx=4
          i=1  nzeta=2  polorb=0  (4d)
            splnorm:   0.15000    
               vcte:    40.000    
               rinn:    4.2348    
               qcoe:    0.0000    
               qyuk:    0.0000    
               qwid:   0.10000E-01
                rcs:    4.7054      2.9549    
            lambdas:    1.0000      1.0000    
-------------------------------------------------------------------------------
L=0  Nkbl=2  erefs: 0.17977+309 0.17977+309
L=1  Nkbl=2  erefs: 0.17977+309 0.17977+309
L=2  Nkbl=1  erefs: 0.17977+309
===============================================================================
</basis_specs>

<pseudopotential_header>
 Ag pb nrl pcec
 ONCVPSP-3.2017-10-31Hamann's oncvpsp                        
 4s 2.00  r= 1.41/4p 6.00  r= 1.47/4d10.00  r= 1.61/                    4s:4p:4d:5s:
</pseudopotential_header>
</preamble>
Ag                            # Symbol
Ag                            # Label
   47                         # Atomic number
     19.0000000000                             # Valence charge
     107.870000000        # Mass 
     406.423403701        # Self energy 
   2   7                      # Lmax for basis, no. of nl orbitals 
   2   6                      # Lmax for projectors, no. of nl KB projectors
# PAOs:__________________________
  0  4  1  0  2.000000   #orbital l, n, z, is_polarized, population
 500    0.5186830387233487E-02     2.588228363229510     # npts, delta, cutoff
     0.000000000000000         1.028087898315183    
    0.5186830387233487E-02     1.028167982405949    
    0.1037366077446697E-01     1.028505557934677    
    0.1556049116170046E-01     1.029067930403067    
    0.2074732154893395E-01     1.029854641509300    
    0.2593415193616744E-01     1.030865068989887    
    0.3112098232340092E-01     1.032098416683594    
    0.3630781271063441E-01     1.033553713712525    
    0.4149464309786790E-01     1.035229814932948    
    0.4668147348510138E-01     1.037125401783160    
    0.5186830387233488E-01     1.039238983353073    
    0.5705513425956836E-01     1.041568897626827    
    0.6224196464680185E-01     1.044113312881317    
    0.6742879503403533E-01     1.046870229233129    
    0.7261562542126883E-01     1.049837480329723    
    0.7780245580850231E-01     1.053012735181942    
    0.8298928619573580E-01     1.056393500135425    
    0.8817611658296928E-01     1.059977120978617    
    0.9336294697020277E-01     1.063760785185109    
    0.9854977735743627E-01     1.067741524287966    
    0.1037366077446698         1.071916216383618    
    0.1089234381319032         1.076281588762805    
    0.1141102685191367         1.080834220665916    
    0.1192970989063702         1.085570546160000    
    0.1244839292936037         1.090486857134567    
    0.1296707596808372         1.095579306413238    
    0.1348575900680707         1.100843910978143    
    0.1400444204553042         1.106276555303902    
    0.1452312508425377         1.111872994797888    
    0.1504180812297711         1.117628859343406    
    0.1556049116170046         1.123539656942300    
    0.1607917420042381         1.129600777453419    
    0.1659785723914716         1.135807496423290    
    0.1711654027787051         1.142154979005237    
    0.1763522331659386         1.148638283963173    
    0.1815390635531721         1.155252367756105    
    0.1867258939404055         1.161992088699446    
    0.1919127243276390         1.168852211199064    
    0.1970995547148725         1.175827410053996    
    0.2022863851021060         1.182912274823663    
    0.2074732154893395         1.190101314255391    
    0.2126600458765730         1.197388960767980    
    0.2178468762638065         1.204769574987036    
    0.2230337066510400         1.212237450327726    
    0.2282205370382734         1.219786817620587    
    0.2334073674255069         1.227411849776003    
    0.2385941978127404         1.235106666482912    
    0.2437810281999739         1.242865338937322    
    0.2489678585872074         1.250681894596176    
    0.2541546889744409         1.258550321952085    
    0.2593415193616744         1.266464575324493    
    0.2645283497489079         1.274418579662757    
    0.2697151801361413         1.282406235356716    
    0.2749020105233748         1.290421423050281    
    0.2800888409106083         1.298458008453592    
    0.2852756712978418         1.306509847149307    
    0.2904625016850753         1.314570789388676    
    0.2956493320723088         1.322634684872935    
    0.3008361624595423         1.330695387515772    
    0.3060229928467758         1.338746760182486    
    0.3112098232340093         1.346782679401599    
    0.3163966536212428         1.354797040044727    
    0.3215834840084762         1.362783759970491    
    0.3267703143957097         1.370736784628369    
    0.3319571447829432         1.378650091618467    
    0.3371439751701767         1.386517695203131    
    0.3423308055574102         1.394333650766542    
    0.3475176359446436         1.402092059218403    
    0.3527044663318771         1.409787071337913    
    0.3578912967191106         1.417412892054346    
    0.3630781271063441         1.424963784660568    
    0.3682649574935776         1.432434074955984    
    0.3734517878808111         1.439818155315409    
    0.3786386182680446         1.447110488680541    
    0.3838254486552781         1.454305612470708    
    0.3890122790425116         1.461398142409746    
    0.3941991094297451         1.468382776265918    
    0.3993859398169785         1.475254297501893    
    0.4045727702042120         1.482007578831902    
    0.4097596005914455         1.488637585683306    
    0.4149464309786790         1.495139379559951    
    0.4201332613659125         1.501508121304711    
    0.4253200917531459         1.507739074258835    
    0.4305069221403794         1.513827607315762    
    0.4356937525276129         1.519769197867203    
    0.4408805829148464         1.525559434639407    
    0.4460674133020799         1.531194020417711    
    0.4512542436893134         1.536668774657442    
    0.4564410740765469         1.541979635979544    
    0.4616279044637804         1.547122664549312    
    0.4668147348510139         1.552094044336775    
    0.4720015652382474         1.556890085257396    
    0.4771883956254808         1.561507225191890    
    0.4823752260127143         1.565942031884071    
    0.4875620563999478         1.570191204715806    
    0.4927488867871813         1.574251576358218    
    0.4979357171744148         1.578120114298492    
    0.5031225475616483         1.581793922241679    
    0.5083093779488818         1.585270241387104    
    0.5134962083361152         1.588546451579050    
    0.5186830387233488         1.591620072331565    
    0.5238698691105822         1.594488763727292    
    0.5290566994978158         1.597150327190499    
    0.5342435298850492         1.599602706134415    
    0.5394303602722826         1.601843986483258    
    0.5446171906595162         1.603872397069403    
    0.5498040210467496         1.605686309906252    
    0.5549908514339832         1.607284240337535    
    0.5601776818212166         1.608664847063838    
    0.5653645122084501         1.609826932047321    
    0.5705513425956836         1.610769440295646    
    0.5757381729829171         1.611491459526323    
    0.5809250033701506         1.611992219712765    
    0.5861118337573841         1.612271092513397    
    0.5912986641446175         1.612327590585390    
    0.5964854945318511         1.612161366784590    
    0.6016723249190845         1.611772213253365    
    0.6068591553063181         1.611160060398209    
    0.6120459856935515         1.610324975759004    
    0.6172328160807850         1.609267162771976    
    0.6224196464680185         1.607986959428402    
    0.6276064768552519         1.606484836831340    
    0.6327933072424855         1.604761397652636    
    0.6379801376297189         1.602817374492567    
    0.6431669680169524         1.600653628144597    
    0.6483537984041859         1.598271145767793    
    0.6535406287914194         1.595671038969472    
    0.6587274591786529         1.592854541800791    
    0.6639142895658864         1.589823008668025    
    0.6691011199531198         1.586577912162352    
    0.6742879503403534         1.583120840811017    
    0.6794747807275868         1.579453496752817    
    0.6846616111148204         1.575577693340862    
    0.6898484415020538         1.571495352675732    
    0.6950352718892873         1.567208503072046    
    0.7002221022765208         1.562719276461595    
    0.7054089326637543         1.558029905736218    
    0.7105957630509878         1.553142722033634    
    0.7157825934382213         1.548060151969442    
    0.7209694238254547         1.542784714818566    
    0.7261562542126883         1.537319019649853    
    0.7313430845999217         1.531665762551990    
    0.7365299149871553         1.525827723298580    
    0.7417167453743887         1.519807762693625    
    0.7469035757616221         1.513608819492444    
    0.7520904061488557         1.507233907322177    
    0.7572772365360891         1.500686111602311    
    0.7624640669233227         1.493968586441307    
    0.7676508973105561         1.487084551512657    
    0.7728377276977896         1.480037288913714    
    0.7780245580850231         1.472830140010587    
    0.7832113884722566         1.465466502272396    
    0.7883982188594901         1.457949826098196    
    0.7935850492467236         1.450283611639739    
    0.7987718796339570         1.442471405623352    
    0.8039587100211906         1.434516798174071    
    0.8091455404084240         1.426423419645216    
    0.8143323707956576         1.418194937456433    
    0.8195192011828910         1.409835052943331    
    0.8247060315701245         1.401347498221691    
    0.8298928619573580         1.392736033069204    
    0.8350796923445915         1.384004441827644    
    0.8402665227318250         1.375156530328323    
    0.8454533531190584         1.366196122843610    
    0.8506401835062919         1.357127059067231    
    0.8558270138935254         1.347953191126027    
    0.8610138442807589         1.338678380625725    
    0.8662006746679924         1.329306495733269    
    0.8713875050552259         1.319841408298119    
    0.8765743354424593         1.310286991014900    
    0.8817611658296929         1.300647114629709    
    0.8869479962169263         1.290925645192236    
    0.8921348266041599         1.281126441355874    
    0.8973216569913933         1.271253351727780    
    0.9025084873786268         1.261310212270943    
    0.9076953177658603         1.251300843760005    
    0.9128821481530938         1.241229049292721    
    0.9180689785403273         1.231098611858616    
    0.9232558089275608         1.220913291966552    
    0.9284426393147942         1.210676825332572    
    0.9336294697020278         1.200392920629543    
    0.9388163000892612         1.190065257299800    
    0.9440031304764948         1.179697483432043    
    0.9491899608637282         1.169293213703623    
    0.9543767912509616         1.158856027389135    
    0.9595636216381952         1.148389466436389    
    0.9647504520254286         1.137897033610326    
    0.9699372824126622         1.127382190705964    
    0.9751241127998956         1.116848356830534    
    0.9803109431871291         1.106298906755819    
    0.9854977735743626         1.095737169340673    
    0.9906846039615961         1.085166426024396    
    0.9958714343488295         1.074589909390987    
     1.001058264736063         1.064010801804481    
     1.006245095123297         1.053432234115522    
     1.011431925510530         1.042857284438796    
     1.016618755897764         1.032288977001730    
     1.021805586284997         1.021730281063572    
     1.026992416672230         1.011184109905141    
     1.032179247059464         1.000653319888401    
     1.037366077446698        0.9901407095855775    
     1.042552907833931        0.9796490189773435    
     1.047739738221164        0.9691809287190186    
     1.052926568608398        0.9587390594746390    
     1.058113398995632        0.9483259713174228    
     1.063300229382865        0.9379441631963501    
     1.068487059770098        0.9275960724675711    
     1.073673890157332        0.9172840744895804    
     1.078860720544565        0.9070104822814127    
     1.084047550931799        0.8967775462421232    
     1.089234381319032        0.8865874539310140    
     1.094421211706266        0.8764423299068245    
     1.099608042093499        0.8663442356246966    
     1.104794872480733        0.8562951693897504    
     1.109981702867966        0.8462970663653615    
     1.115168533255200        0.8363517986352429    
     1.120355363642433        0.8264611753173872    
     1.125542194029667        0.8166269427283879    
     1.130729024416900        0.8068507845967916    
     1.135915854804134        0.7971343223234300    
     1.141102685191367        0.7874791152874792    
     1.146289515578601        0.7778866611963637    
     1.151476345965834        0.7683583964777131    
     1.156663176353068        0.7588956967119264    
     1.161850006740301        0.7494998771032906    
     1.167036837127535        0.7401721929880819    
     1.172223667514768        0.7309138403779052    
     1.177410497902002        0.7217259565363456    
     1.182597328289235        0.7126096205873119    
     1.187784158676469        0.7035658541532253    
     1.192970989063702        0.6945956220212605    
     1.198157819450936        0.6856998328359772    
     1.203344649838169        0.6768793398164968    
     1.208531480225403        0.6681349414965388    
     1.213718310612636        0.6594673824855222    
     1.218905140999869        0.6508773542491404    
     1.224091971387103        0.6423654959076408    
     1.229278801774337        0.6339323950501415    
     1.234465632161570        0.6255785885635338    
     1.239652462548803        0.6173045634740837    
     1.244839292936037        0.6091107578003392    
     1.250026123323271        0.6009975614159764    
     1.255212953710504        0.5929653169206455    
     1.260399784097737        0.5850143205177583    
     1.265586614484971        0.5771448228978522    
     1.270773444872204        0.5693570301256358    
     1.275960275259438        0.5616511045299705    
     1.281147105646671        0.5540271655954384    
     1.286333936033905        0.5464852908537601    
     1.291520766421138        0.5390255167745365    
     1.296707596808372        0.5316478396540308    
     1.301894427195605        0.5243522165004217    
     1.307081257582839        0.5171385659152341    
     1.312268087970072        0.5100067689697465    
     1.317454918357306        0.5029566700750112    
     1.322641748744539        0.4959880778453535    
     1.327828579131773        0.4891007659543570    
     1.333015409519006        0.4822944739820690    
     1.338202239906240        0.4755689082535189    
     1.343389070293473        0.4689237426677861    
     1.348575900680707        0.4623586195163936    
     1.353762731067940        0.4558731502913986    
     1.358949561455174        0.4494669164826323    
     1.364136391842407        0.4431394703627908    
     1.369323222229641        0.4368903357240461    
     1.374510052616874        0.4307190085609351    
     1.379696883004108        0.4246249580597133    
     1.384883713391341        0.4186076275179784    
     1.390070543778575        0.4126664353544518    
     1.395257374165808        0.4068007747833705    
     1.400444204553042        0.4010100136444652    
     1.405631034940275        0.3952934947629520    
     1.410817865327509        0.3896505385119833    
     1.416004695714742        0.3840804468634554    
     1.421191526101976        0.3785825076590593    
     1.426378356489209        0.3731559991855899    
     1.431565186876443        0.3678001946438883    
     1.436752017263676        0.3625143661341564    
     1.441938847650909        0.3572977875214275    
     1.447125678038143        0.3521497344595524    
     1.452312508425377        0.3470694839948026    
     1.457499338812610        0.3420563135785712    
     1.462686169199843        0.3371095014259149    
     1.467872999587077        0.3322283270474128    
     1.473059829974311        0.3274120717234997    
     1.478246660361544        0.3226600188395392    
     1.483433490748777        0.3179714540357740    
     1.488620321136011        0.3133456654085950    
     1.493807151523244        0.3087819438116757    
     1.498993981910478        0.3042795829775771    
     1.504180812297711        0.2998378797554810    
     1.509367642684945        0.2954561342693055    
     1.514554473072178        0.2911336501133560    
     1.519741303459412        0.2868697345256706    
     1.524928133846645        0.2826636985405274    
     1.530114964233879        0.2785148571361633    
     1.535301794621112        0.2744225293762348    
     1.540488625008346        0.2703860385421955    
     1.545675455395579        0.2664047122576526    
     1.550862285782813        0.2624778826049613    
     1.556049116170046        0.2586048862345001    
     1.561235946557280        0.2547850644669584    
     1.566422776944513        0.2510177633865234    
     1.571609607331747        0.2473023339316757    
     1.576796437718980        0.2436381319773632    
     1.581983268106214        0.2400245184099504    
     1.587170098493447        0.2364608591973842    
     1.592356928880681        0.2329465254544273    
     1.597543759267914        0.2294808934968416    
     1.602730589655148        0.2260633449102986    
     1.607917420042381        0.2226932665859574    
     1.613104250429614        0.2193700507659426    
     1.618291080816848        0.2160930950822210    
     1.623477911204082        0.2128618026028970    
     1.628664741591315        0.2096755818524410    
     1.633851571978548        0.2065338468521917    
     1.639038402365782        0.2034360171253459    
     1.644225232753016        0.2003815177100117    
     1.649412063140249        0.1973697791999086    
     1.654598893527482        0.1944002377382953    
     1.659785723914716        0.1914723350482982    
     1.664972554301949        0.1885855184250211    
     1.670159384689183        0.1857392407363359    
     1.675346215076416        0.1829329604270717    
     1.680533045463650        0.1801661415158960    
     1.685719875850883        0.1774382535917280    
     1.690906706238117        0.1747487718059650    
     1.696093536625350        0.1720971768626277    
     1.701280367012584        0.1694829550066418    
     1.706467197399817        0.1669055980095963    
     1.711654027787051        0.1643646031537864    
     1.716840858174284        0.1618594732142768    
     1.722027688561518        0.1593897164389895    
     1.727214518948751        0.1569548465272947    
     1.732401349335985        0.1545543826067951    
     1.737588179723218        0.1521878492085963    
     1.742775010110452        0.1498547762409848    
     1.747961840497685        0.1475546989619121    
     1.753148670884919        0.1452871579500184    
     1.758335501272152        0.1430516990744491    
     1.763522331659386        0.1408478734634049    
     1.768709162046619        0.1386752374717333    
     1.773895992433853        0.1365333526473736    
     1.779082822821086        0.1344217856968511    
     1.784269653208320        0.1323401084497935    
     1.789456483595553        0.1302878978226781    
     1.794643313982787        0.1282647357817109    
     1.799830144370020        0.1262702093049710    
     1.805016974757254        0.1243039103438271    
     1.810203805144487        0.1223654357837401    
     1.815390635531721        0.1204543874044426    
     1.820577465918954        0.1185703718395560    
     1.825764296306188        0.1167130005357068    
     1.830951126693421        0.1148818897111578    
     1.836137957080655        0.1130766603140131    
     1.841324787467888        0.1112969379800242    
     1.846511617855122        0.1095423529900660    
     1.851698448242355        0.1078125402272653    
     1.856885278629588        0.1061071391338469    
     1.862072109016822        0.1044257936677322    
     1.867258939404056        0.1027681522589274    
     1.872445769791289        0.1011338677657276    
     1.877632600178522        0.9952259743071304E-01
     1.882819430565756        0.9793400283665153E-01
     1.888006260952990        0.9636774986226861E-01
     1.893193091340223        0.9482350863799849E-01
     1.898379921727456        0.9330095350157520E-01
     1.903566752114690        0.9179976295365000E-01
     1.908753582501923        0.9031961961337093E-01
     1.913940412889157        0.8886021017402360E-01
     1.919127243276390        0.8742122535862427E-01
     1.924314073663624        0.8600235987558999E-01
     1.929500904050857        0.8460331237447342E-01
     1.934687734438091        0.8322378540178031E-01
     1.939874564825324        0.8186348535690839E-01
     1.945061395212558        0.8052212244814029E-01
     1.950248225599791        0.7919941064880580E-01
     1.955435055987025        0.7789506765357102E-01
     1.960621886374258        0.7660881483492128E-01
     1.965808716761492        0.7534037719975177E-01
     1.970995547148725        0.7408948334617174E-01
     1.976182377535959        0.7285586542049466E-01
     1.981369207923192        0.7163925907443129E-01
     1.986556038310426        0.7043940342250379E-01
     1.991742868697659        0.6925604099965864E-01
     1.996929699084893        0.6808891771912445E-01
     2.002116529472126        0.6693778283050776E-01
     2.007303359859359        0.6580238887813827E-01
     2.012490190246593        0.6468249165966088E-01
     2.017677020633827        0.6357785018489355E-01
     2.022863851021060        0.6248822663495185E-01
     2.028050681408294        0.6141338632164801E-01
     2.033237511795527        0.6035309764716200E-01
     2.038424342182760        0.5930713206401073E-01
     2.043611172569994        0.5827526403529690E-01
     2.048798002957227        0.5725727099525801E-01
     2.053984833344461        0.5625293331010082E-01
     2.059171663731695        0.5526203423914402E-01
     2.064358494118928        0.5428435989627778E-01
     2.069545324506161        0.5331969921171704E-01
     2.074732154893395        0.5236784389407764E-01
     2.079918985280628        0.5142858839273634E-01
     2.085105815667862        0.5050172986054353E-01
     2.090292646055095        0.4958706811684088E-01
     2.095479476442329        0.4868440561079121E-01
     2.100666306829563        0.4779354738504334E-01
     2.105853137216796        0.4691430103968142E-01
     2.111039967604029        0.4604647669654991E-01
     2.116226797991263        0.4518988696387224E-01
     2.121413628378496        0.4434434690119823E-01
     2.126600458765730        0.4350967398468212E-01
     2.131787289152963        0.4268568807265783E-01
     2.136974119540197        0.4187221137158369E-01
     2.142160949927430        0.4106906840228197E-01
     2.147347780314664        0.4027608596650995E-01
     2.152534610701897        0.3949309311385052E-01
     2.157721441089131        0.3871992110891136E-01
     2.162908271476364        0.3795640339889914E-01
     2.168095101863598        0.3720237558148622E-01
     2.173281932250831        0.3645767537304765E-01
     2.178468762638065        0.3572214257722257E-01
     2.183655593025298        0.3499561905321431E-01
     2.188842423412532        0.3427794868551134E-01
     2.194029253799765        0.3356897735308847E-01
     2.199216084186999        0.3286855289895301E-01
     2.204402914574232        0.3217652509996673E-01
     2.209589744961466        0.3149274563948972E-01
     2.214776575348699        0.3081706807543613E-01
     2.219963405735933        0.3014934781217635E-01
     2.225150236123166        0.2948944207198679E-01
     2.230337066510399        0.2883720986733137E-01
     2.235523896897633        0.2819251196968876E-01
     2.240710727284867        0.2755521088507107E-01
     2.245897557672100        0.2692517082553968E-01
     2.251084388059334        0.2630225768195087E-01
     2.256271218446567        0.2568633899786252E-01
     2.261458048833800        0.2507728394036409E-01
     2.266644879221034        0.2447496327605548E-01
     2.271831709608267        0.2387924934424122E-01
     2.277018539995501        0.2329001603126198E-01
     2.282205370382735        0.2270713873875282E-01
     2.287392200769968        0.2213049437643355E-01
     2.292579031157202        0.2155996132136312E-01
     2.297765861544435        0.2099541939513629E-01
     2.302952691931668        0.2043674984111104E-01
     2.308139522318902        0.1988383530047641E-01
     2.313326352706135        0.1933655978865102E-01
     2.318513183093369        0.1879480867172347E-01
     2.323700013480603        0.1825846864290613E-01
     2.328886843867836        0.1772742769936353E-01
     2.334073674255069        0.1720157511927841E-01
     2.339260504642303        0.1668080143912900E-01
     2.344447335029536        0.1616499843127225E-01
     2.349634165416770        0.1565405909419029E-01
     2.354820995804003        0.1514787795282916E-01
     2.360007826191237        0.1464635339871946E-01
     2.365194656578470        0.1414939501995304E-01
     2.370381486965704        0.1365693628545546E-01
     2.375568317352937        0.1316894911061740E-01
     2.380755147740170        0.1268545608752994E-01
     2.385941978127404        0.1220653791950932E-01
     2.391128808514638        0.1173233560599418E-01
     2.396315638901871        0.1126304815383866E-01
     2.401502469289105        0.1079892704843752E-01
     2.406689299676338        0.1034026870802016E-01
     2.411876130063572        0.9887405930719448E-02
     2.417062960450805        0.9440699082083307E-02
     2.422249790838038        0.9000527532651017E-02
     2.427436621225272        0.8567281665365589E-02
     2.432623451612506        0.8141355632301017E-02
     2.437810281999739        0.7723140942099004E-02
     2.442997112386973        0.7313020894037458E-02
     2.448183942774206        0.6911365833104358E-02
     2.453370773161439        0.6518529175714742E-02
     2.458557603548673        0.6134844142439292E-02
     2.463744433935906        0.5760621128390533E-02
     2.468931264323140        0.5396145641038156E-02
     2.474118094710374        0.5041676737221139E-02
     2.479304925097607        0.4697445894753066E-02
     2.484491755484840        0.4363656258351887E-02
     2.489678585872074        0.4040482204074082E-02
     2.494865416259307        0.3728069170551172E-02
     2.500052246646541        0.3426533708771704E-02
     2.505239077033774        0.3135963704566379E-02
     2.510425907421008        0.2856418728935072E-02
     2.515612737808242        0.2587930470296239E-02
     2.520799568195475        0.2330503198662306E-02
     2.525986398582708        0.2084114203017525E-02
     2.531173228969942        0.1848714126831207E-02
     2.536360059357175        0.1624227097243099E-02
     2.541546889744409        0.1410550490443370E-02
     2.546733720131642        0.1207554077614775E-02
     2.551920550518876        0.1015078105759615E-02
     2.557107380906109        0.8329294764058880E-03
     2.562294211293343        0.6608743109675584E-03
     2.567481041680576        0.4986230159999865E-03
     2.572667872067810        0.3457976808705680E-03
     2.577854702455043        0.2018491778130653E-03
     2.583041532842277        0.6576731587873130E-04
     2.588228363229510         0.000000000000000    
  0  5  1  0  1.000000   #orbital l, n, z, is_polarized, population
 500    0.1479998033254510E-01     7.385190185940006     # npts, delta, cutoff
     0.000000000000000        0.4869280878690747    
    0.1479998033254510E-01    0.4872289719319690    
    0.2959996066509021E-01    0.4881743997699190    