<preamble>

<basis_specs>
===============================================================================
Ar                   Z=  18    Mass=  39.950        Charge= 0.17977+309
Lmxo=2 Lmxkb= 2    BasisType=split      Semic=F
L=0  Nsemic=0  Cnfigmx=3
          i=1  nzeta=2  polorb=0  (3s)
            splnorm:   0.15000    
               vcte:    40.000    
               rinn:    3.6474    
               qcoe:    0.0000    
               qyuk:    0.0000    
               qwid:   0.10000E-01
                rcs:    4.0486      2.6460    
            lambdas:    1.0000      1.0000    
L=1  Nsemic=0  Cnfigmx=3
          i=1  nzeta=2  polorb=1  (3p)  (to be polarized perturbatively)
            splnorm:   0.15000    
               vcte:    40.000    
               rinn:    4.4973    
               qcoe:    0.0000    
               qyuk:    0.0000    
               qwid:   0.10000E-01
                rcs:    4.9970      3.2798    
            lambdas:    1.0000      1.0000    
L=2  Nsemic=0  Cnfigmx=3
          i=1  nzeta=0  polorb=0  (3d)  (perturbative polarization orbital) (from 3p)
-------------------------------------------------------------------------------
L=0  Nkbl=1  erefs: 0.17977+309
L=1  Nkbl=1  erefs: 0.17977+309
L=2  Nkbl=1  erefs: 0.17977+309
===============================================================================
</basis_specs>

<pseudopotential_header>
 Ar pb nrl pcec
 ONCVPSP-3.2017-10-31Hamann's oncvpsp                        
 3s 2.00  r= 1.56/3p 6.00  r= 1.56/3d 0.00  r= 1.56/                    3s:3p:
</pseudopotential_header>
</preamble>
Ar                            # Symbol
Ar                            # Label
   18                         # Atomic number
     8.00000000000                             # Valence charge
     39.9500000000        # Mass 
     67.0802476038        # Self energy 
   2   5                      # Lmax for basis, no. of nl orbitals 
   2   6                      # Lmax for projectors, no. of nl KB projectors
# PAOs:__________________________
  0  3  1  0  2.000000   #orbital l, n, z, is_polarized, population
 500    0.8113359569483414E-02     4.048566425172224     # npts, delta, cutoff
     0.000000000000000        0.1444185628344122    
    0.8113359569483414E-02    0.1445951589078492    
    0.1622671913896683E-01    0.1451305218053926    
    0.2434007870845024E-01    0.1460221553594955    
    0.3245343827793366E-01    0.1472691006486144    
    0.4056679784741707E-01    0.1488700177912157    
    0.4868015741690049E-01    0.1508231874426100    
    0.5679351698638390E-01    0.1531265131655889    
    0.6490687655586731E-01    0.1557775243737463    
    0.7302023612535073E-01    0.1587733798091442    
    0.8113359569483414E-01    0.1621108715414172    
    0.8924695526431756E-01    0.1657864294793000    
    0.9736031483380098E-01    0.1697961263858672    
    0.1054736744032844        0.1741356833882878    
    0.1135870339727678        0.1788004759721650    
    0.1217003935422512        0.1837855404497836    
    0.1298137531117346        0.1890855808907911    
    0.1379271126812180        0.1946949765030906    
    0.1460404722507015        0.2006077894509586    
    0.1541538318201849        0.2068177730966944    
    0.1622671913896683        0.2133183806514008    
    0.1703805509591517        0.2201027742198213    
    0.1784939105286351        0.2271638342235363    
    0.1866072700981185        0.2344941691861773    
    0.1947206296676020        0.2420861258637744    
    0.2028339892370853        0.2499317997027803    
    0.2109473488065688        0.2580230456078219    
    0.2190607083760522        0.2663514890007388    
    0.2271740679455356        0.2749085371520461    
    0.2352874275150190        0.2836853907655550    
    0.2434007870845024        0.2926730557965241    
    0.2515141466539859        0.3018623554833818    
    0.2596275062234693        0.3112439425728031    
    0.2677408657929526        0.3208083117176660    
    0.2758542253624361        0.3305458120272117    
    0.2839675849319195        0.3404466597485887    
    0.2920809445014029        0.3505009510588331    
    0.3001943040708863        0.3606986749462586    
    0.3083076636403697        0.3710297261602044    
    0.3164210232098532        0.3814839182080857    
    0.3245343827793365        0.3920509963787440    
    0.3326477423488200        0.4027206507711694    
    0.3407611019183034        0.4134825293078175    
    0.3488744614877868        0.4243262507118657    
    0.3569878210572702        0.4352414174280113    
    0.3651011806267536        0.4462176284665977    
    0.3732145401962371        0.4572444921511874    
    0.3813278997657205        0.4683116387499707    
    0.3894412593352039        0.4794087329717639    
    0.3975546189046873        0.4905254863077537    
    0.4056679784741707        0.5016516692005224    
    0.4137813380436541        0.5127771230223661    
    0.4218946976131375        0.5238917718453989    
    0.4300080571826210        0.5349856339864152    
    0.4381214167521044        0.5460488333100474    
    0.4462347763215878        0.5570716102743213    
    0.4543481358910712        0.5680443327032864    
    0.4624614954605546        0.5789575062719986    
    0.4705748550300380        0.5898017846898400    
    0.4786882145995214        0.6005679795687274    
    0.4868015741690048        0.6112470699634739    
    0.4949149337384883        0.6218302115723359    
    0.5030282933079717        0.6323087455863612    
    0.5111416528774551        0.6426742071769882    
    0.5192550124469385        0.6529183336120554    
    0.5273683720164219        0.6630330719910908    
    0.5354817315859053        0.6730105865916701    
    0.5435950911553887        0.6828432658191145    
    0.5517084507248722        0.6925237287529791    
    0.5598218102943556        0.7020448312841894    
    0.5679351698638390        0.7113996718377112    
    0.5760485294333224        0.7205815966763945    
    0.5841618890028059        0.7295842047823403    
    0.5922752485722892        0.7384013523130378    
    0.6003886081417726        0.7470271566302625    
    0.6085019677112561        0.7554559999005136    
    0.6166153272807394        0.7636825322665859    
    0.6247286868502229        0.7717016745906093    
    0.6328420464197063        0.7795086207696876    
    0.6409554059891898        0.7870988396260039    
    0.6490687655586731        0.7944680763740899    
    0.6571821251281565        0.8016123536684994    
    0.6652954846976400        0.8085279722361234    
    0.6734088442671233        0.8152115110978364    
    0.6815222038366068        0.8216598273850225    
    0.6896355634060902        0.8278700557571187    
    0.6977489229755736        0.8338396074269958    
    0.7058622825450570        0.8395661688016368    
    0.7139756421145405        0.8450476997461677    
    0.7220890016840239        0.8502824314798831    
    0.7302023612535072        0.8552688641135107    
    0.7383157208229907        0.8600057638374492    
    0.7464290803924741        0.8644921597712666    
    0.7545424399619575        0.8687273404852305    
    0.7626557995314409        0.8727108502050825    
    0.7707691591009244        0.8764424847117361    
    0.7788825186704078        0.8799222869479555    
    0.7869958782398911        0.8831505423444723    
    0.7951092378093746        0.8861277738783067    
    0.8032225973788580        0.8888547368764241    
    0.8113359569483414        0.8913324135781104    
    0.8194493165178248        0.8935620074697149    
    0.8275626760873083        0.8955449374056056    
    0.8356760356567916        0.8972828315294210    
    0.8437893952262751        0.8987775210098226    
    0.8519027547957585        0.9000310336050711    
    0.8600161143652419        0.9010455870708897    
    0.8681294739347253        0.9018235824260696    
    0.8762428335042087        0.9023675970903728    
    0.8843561930736922        0.9026803779092186    
    0.8924695526431755        0.9027648340796661    
    0.9005829122126590        0.9026240299921020    
    0.9086962717821424        0.9022611780019207    
    0.9168096313516257        0.9016796311454381    
    0.9249229909211092        0.9008828758140413    
    0.9330363504905926        0.8998745244004233    
    0.9411497100600761        0.8986583079305551    
    0.9492630696295594        0.8972380686947569    
    0.9573764291990429        0.8956177528910031    
    0.9654897887685263        0.8938014032932884    
    0.9736031483380096        0.8917931519575424    
    0.9817165079074931        0.8895972129772638    
    0.9898298674769765        0.8872178753006584    
    0.9979432270464599        0.8846594956206825    
     1.006056586615943        0.8819264913489708    
     1.014169946185427        0.8790233336842390    
     1.022283305754910        0.8759545407852750    
     1.030396665324394        0.8727246710581229    
     1.038510024893877        0.8693383167153228    
     1.046623384463360        0.8658000991205059    
     1.054736744032844        0.8621146561178434    
     1.062850103602327        0.8582866425887066    
     1.070963463171811        0.8543207220960694    
     1.079076822741294        0.8502215610508802    
     1.087190182310777        0.8459938230274662    
     1.095303541880261        0.8416421632522694    
     1.103416901449744        0.8371712232708237    
     1.111530261019228        0.8325856257974539    
     1.119643620588711        0.8278899697516865    
     1.127756980158195        0.8230888254846532    
     1.135870339727678        0.8181867301982825    
     1.143983699297161        0.8131881835596657    
     1.152097058866645        0.8080976435122846    
     1.160210418436128        0.8029195222854404    
     1.168323778005612        0.7976581826025770    
     1.176437137575095        0.7923179340886651    
     1.184550497144578        0.7869030298766236    
     1.192663856714062        0.7814176634118573    
     1.200777216283545        0.7758659654539010    
     1.208890575853029        0.7702520012735015    
     1.217003935422512        0.7645797680431150    
     1.225117294991996        0.7588531924185173    
     1.233230654561479        0.7530761283084766    
     1.241344014130962        0.7472523548297000    
     1.249457373700446        0.7413855744431327    
     1.257570733269929        0.7354794112681613    
     1.265684092839413        0.7295374095703067    
     1.273797452408896        0.7235630324182287    
     1.281910811978380        0.7175596605052877    
     1.290024171547863        0.7115305911308157    
     1.298137531117346        0.7054790373361112    
     1.306250890686830        0.6994081271897462    
     1.314364250256313        0.6933209032170422    
     1.322477609825796        0.6872203219677989    
     1.330590969395280        0.6811092537172195    
     1.338704328964763        0.6749904822937255    
     1.346817688534247        0.6688667050284633    
     1.354931048103730        0.6627405328200786    
     1.363044407673214        0.6566144903097564    
     1.371157767242697        0.6504910161599383    
     1.379271126812180        0.6443724634317014    
     1.387384486381664        0.6382611000543839    
     1.395497845951147        0.6321591093826580    
     1.403611205520631        0.6260685908347499    
     1.411724565090114        0.6199915606071368    
     1.419837924659598        0.6139299524597884    
     1.427951284229081        0.6078856185674976    
     1.436064643798564        0.6018603304317783    
     1.444178003368048        0.5958557798490733    
     1.452291362937531        0.5898735799303216    
     1.460404722507014        0.5839152661677964    
     1.468518082076498        0.5779822975448980    
     1.476631441645981        0.5720760576850787    
     1.484744801215465        0.5661978560361761    
     1.492858160784948        0.5603489290867369    
     1.500971520354432        0.5545304416114543    
     1.509084879923915        0.5487434879416935    
     1.517198239493398        0.5429890932334837    
     1.525311599062882        0.5372682147721154    
     1.533424958632365        0.5315817435028909    
     1.541538318201849        0.5259305055623743    
     1.549651677771332        0.5203152627580099    
     1.557765037340816        0.5147367132560959    
     1.565878396910299        0.5091954948025796    
     1.573991756479782        0.5036921903341347    
     1.582105116049266        0.4982273344545576    
     1.590218475618749        0.4928014203784106    
     1.598331835188233        0.4874149056870236    
     1.606445194757716        0.4820682139015124    
     1.614558554327199        0.4767617344162527    
     1.622671913896683        0.4714958232135323    
     1.630785273466166        0.4662708044851779    
     1.638898633035650        0.4610869720004338    
     1.647011992605133        0.4559445903033967    
     1.655125352174617        0.4508438958569702    
     1.663238711744100        0.4457850981173517    
     1.671352071313583        0.4407683806158293    
     1.679465430883067        0.4357939020038490    
     1.687578790452550        0.4308617970686770    
     1.695692150022033        0.4259721777075606    
     1.703805509591517        0.4211251338691887    
     1.711918869161000        0.4163207344673890    
     1.720032228730484        0.4115590282638119    
     1.728145588299967        0.4068400447208410    
     1.736258947869451        0.4021637948263810    
     1.744372307438934        0.3975302718904108    
     1.752485667008417        0.3929394523150360    
     1.760599026577901        0.3883912963383783    
     1.768712386147384        0.3838857487527985    
     1.776825745716868        0.3794227395990334    
     1.784939105286351        0.3750021848360403    
     1.793052464855835        0.3706239869879068    
     1.801165824425318        0.3662880357685119    
     1.809279183994801        0.3619942086839683    
     1.817392543564285        0.3577423716144105    
     1.825505903133768        0.3535323793751480    
     1.833619262703251        0.3493640762579055    
     1.841732622272735        0.3452372965532040    
     1.849845981842218        0.3411518650537624    
     1.857959341411702        0.3371075975400664    
     1.866072700981185        0.3331043012485742    
     1.874186060550669        0.3291417753227724    
     1.882299420120152        0.3252198112480743    
     1.890412779689636        0.3213381932708035    
     1.898526139259119        0.3174966988017651    
     1.906639498828602        0.3136950988050603    
     1.914752858398086        0.3099331581724746    
     1.922866217967569        0.3062106360839586    
     1.930979577537053        0.3025272863546565    
     1.939092937106536        0.2988828577689128    
     1.947206296676019        0.2952770944016744    
     1.955319656245503        0.2917097359276558    
     1.963433015814986        0.2881805179188183    
     1.971546375384470        0.2846891721303798    
     1.979659734953953        0.2812354267757433    
     1.987773094523436        0.2778190067909368    
     1.995886454092920        0.2744396340886130    
     2.003999813662403        0.2710970278020636    
     2.012113173231887        0.2677909045197847    
     2.020226532801370        0.2645209785105517    
     2.028339892370854        0.2612869619395243    
     2.036453251940337        0.2580885650758537    
     2.044566611509820        0.2549254964916969    
     2.052679971079304        0.2517974632531465    
     2.060793330648787        0.2487041711035129    
     2.068906690218271        0.2456453246388276    
     2.077020049787754        0.2426206274760847    
     2.085133409357237        0.2396297824146196    
     2.093246768926721        0.2366724915904836    
     2.101360128496204        0.2337484566242434    
     2.109473488065688        0.2308573787626499    
     2.117586847635171        0.2279989590140023    
     2.125700207204654        0.2251728982775608    
     2.133813566774138        0.2223788974675064    
     2.141926926343621        0.2196166576312298    
     2.150040285913105        0.2168858800622435    
     2.158153645482588        0.2141862664082164    
     2.166267005052072        0.2115175187739455    
     2.174380364621555        0.2088793398194635    
     2.182493724191038        0.2062714328537912    
     2.190607083760522        0.2036935019241617    
     2.198720443330005        0.2011452519009080    
     2.206833802899489        0.1986263885583830    
     2.214947162468972        0.1961366186518730    
     2.223060522038455        0.1936756499906609    
     2.231173881607939        0.1912431915074620    
     2.239287241177423        0.1888389533243332    
     2.247400600746906        0.1864626468151503    
     2.255513960316389        0.1841139846648066    
     2.263627319885873        0.1817926809252791    
     2.271740679455356        0.1794984510686367    
     2.279854039024839        0.1772310120371313    
     2.287967398594323        0.1749900822904692    
     2.296080758163806        0.1727753818503768    
     2.304194117733290        0.1705866323425742    
     2.312307477302773        0.1684235570362243    
     2.320420836872256        0.1662858808809739    
     2.328534196441740        0.1641733305416867    
     2.336647556011223        0.1620856344309610    
     2.344760915580707        0.1600225227394687    
     2.352874275150190        0.1579837274642587    
     2.360987634719673        0.1559689824351089    
     2.369100994289157        0.1539780233389316    
     2.377214353858641        0.1520105877423754    
     2.385327713428124        0.1500664151126841    
     2.393441072997607        0.1481452468368741    
     2.401554432567091        0.1462468262392733    
     2.409667792136574        0.1443708985975288    
     2.417781151706057        0.1425172111571423    
     2.425894511275541        0.1406855131445501    
     2.434007870845024        0.1388755557788510    
     2.442121230414508        0.1370870922822226    
     2.450234589983991        0.1353198778890865    
     2.458347949553474        0.1335736698540545    
     2.466461309122958        0.1318482274587336    
     2.474574668692441        0.1301433120174210    
     2.482688028261925        0.1284586868817442    
     2.490801387831408        0.1267941174442835    
     2.498914747400891        0.1251493711412316    
     2.507028106970375        0.1235242174541146    
     2.515141466539858        0.1219184279106415    
     2.523254826109342        0.1203317760846993    
     2.531368185678825        0.1187640375955329    
     2.539481545248309        0.1172149901061535    
     2.547594904817792        0.1156844133210160    
     2.555708264387275        0.1141720889829839    
     2.563821623956759        0.1126778008696161    
     2.571934983526242        0.1112013347888203    
     2.580048343095726        0.1097424785738920    
     2.588161702665209        0.1083010220779695    
     2.596275062234692        0.1068767571679284    
     2.604388421804176        0.1054694777177560    
     2.612501781373660        0.1040789796014152    
     2.620615140943143        0.1027050606852332    
     2.628728500512626        0.1013475208198347    
     2.636841860082110        0.1000061618316430    
     2.644955219651593        0.9868078751397108E-01
     2.653068579221076        0.9737120361772049E-01
     2.661181938790560        0.9607721784172264E-01
     2.669295298360043        0.9479863982271802E-01
     2.677408657929527        0.9353528112501046E-01
     2.685522017499010        0.9228695522982761E-01
     2.693635377068493        0.9105347752438962E-01
     2.701748736637977        0.8983466529060513E-01
     2.709862096207460        0.8863033769351815E-01
     2.717975455776944        0.8744031576951262E-01
     2.726088815346427        0.8626442241466088E-01
     2.734202174915910        0.8510248237242869E-01
     2.742315534485394        0.8395432222193563E-01
     2.750428894054878        0.8281977036521411E-01
     2.758542253624361        0.8169865701203539E-01
     2.766655613193844        0.8059081416951572E-01
     2.774768972763328        0.7949607562680813E-01
     2.782882332332811        0.7841427694187886E-01
     2.790995691902294        0.7734525543546407E-01
     2.799109051471778        0.7628885016919894E-01
     2.807222411041261        0.7524490193468474E-01
     2.815335770610745        0.7421325324234571E-01
     2.823449130180228        0.7319374830629169E-01
     2.831562489749711        0.7218623302264615E-01
     2.839675849319195        0.7119055496323617E-01
     2.847789208888678        0.7020656336146582E-01
     2.855902568458162        0.6923410909799062E-01
     2.864015928027645        0.6827304468642170E-01
     2.872129287597128        0.6732322425894680E-01
     2.880242647166612        0.6638450355189705E-01
     2.888356006736096        0.6545673989125395E-01
     2.896469366305579        0.6453979217838977E-01
     2.904582725875062        0.6363352087584401E-01
     2.912696085444546        0.6273778799307422E-01
     2.920809445014029        0.6185245707226327E-01
     2.928922804583512        0.6097739317403062E-01
     2.937036164152996        0.6011246286307622E-01
     2.945149523722479        0.5925753419386930E-01
     2.953262883291963        0.5841247669633648E-01
     2.961376242861446        0.5757716136156681E-01
     2.969489602430929        0.5675146062756643E-01
     2.977602962000413        0.5593524836502380E-01
     2.985716321569897        0.5512839986310376E-01
     2.993829681139380        0.5433079181526965E-01
     3.001943040708863        0.5354230230514400E-01
     3.010056400278347        0.5276281079240513E-01
     3.018169759847830        0.5199219809872632E-01
     3.026283119417314        0.5123034639375842E-01
     3.034396478986797        0.5047713918116121E-01
     3.042509838556280        0.4973246128468668E-01
     3.050623198125764        0.4899619883431384E-01
     3.058736557695247        0.4826823925244060E-01
     3.066849917264730        0.4754847124012883E-01
     3.074963276834214        0.4683678476341811E-01
     3.083076636403697        0.4613307103969717E-01
     3.091189995973181        0.4543722252414152E-01
     3.099303355542664        0.4474913289621502E-01
     3.107416715112147        0.4406869704624261E-01
     3.115530074681631        0.4339581106205516E-01
     3.123643434251115        0.4273037221570368E-01
     3.131756793820598        0.4207227895024941E-01
     3.139870153390081        0.4142143086662156E-01
     3.147983512959565        0.4077772871056333E-01
     3.156096872529048        0.4014107435964884E-01
     3.164210232098532        0.3951137081038100E-01
     3.172323591668015        0.3888852216536864E-01
     3.180436951237498        0.3827243362058120E-01
     3.188550310806982        0.3766301145269688E-01
     3.196663670376465        0.3706016300652456E-01
     3.204777029945948        0.3646379668251546E-01
     3.212890389515432        0.3587382192435232E-01
     3.221003749084915        0.3529014920663172E-01
     3.229117108654399        0.3471269002263282E-01
     3.237230468223882        0.3414135687217064E-01
     3.245343827793365        0.3357606324953990E-01
     3.253457187362849        0.3301672363153573E-01
     3.261570546932333        0.3246325346558192E-01
     3.269683906501816        0.3191556915793663E-01
     3.277797266071299        0.3137358806199035E-01
     3.285910625640783        0.3083722846665544E-01
     3.294023985210266        0.3030640958483495E-01
     3.302137344779750        0.2978105154200127E-01
     3.310250704349233        0.2926107536485165E-01
     3.318364063918716        0.2874640297005988E-01
     3.326477423488200        0.2823695715311616E-01
     3.334590783057683        0.2773266157725279E-01
     3.342704142627166        0.2723344076247698E-01
     3.350817502196650        0.2673922007468069E-01
     3.358930861766134        0.2624992571484891E-01
     3.367044221335617        0.2576548470835251E-01
     3.375157580905100        0.2528582489433287E-01
     3.383270940474584        0.2481087491518663E-01
     3.391384300044067        0.2434056420613216E-01
     3.399497659613551        0.2387482298487088E-01
     3.407611019183034        0.2341358224133356E-01
     3.415724378752517        0.2295677372751736E-01
     3.423837738322001        0.2250432994742290E-01
     3.431951097891484        0.2205618414707017E-01
     3.440064457460968        0.2161227030460913E-01
     3.448177817030451        0.2117252312051416E-01
     3.456291176599934        0.2073687800786713E-01
     3.464404536169418        0.2030527108273860E-01
     3.472517895738901        0.1987763915464706E-01
     3.480631255308384        0.1945391971711069E-01
     3.488744614877868        0.1903405093828126E-01
     3.496857974447352        0.1861797165166332E-01
     3.504971334016835        0.1820562134693126E-01
     3.513084693586318        0.1779694016082149E-01
     3.521198053155802        0.1739186886811336E-01
     3.529311412725285        0.1699034887269473E-01
     3.537424772294769        0.1659232219870305E-01
     3.545538131864252        0.1619773148176753E-01
     3.553651491433735        0.1580651996032166E-01
     3.561764851003219        0.1541863146700222E-01
     3.569878210572702        0.1503401042013151E-01
     3.577991570142186        0.1465260181526941E-01
     3.586104929711669        0.1427435121686521E-01
     3.594218289281153        0.1389920474997811E-01
     3.602331648850636        0.1352710909207879E-01
     3.610445008420119        0.1315801146493416E-01
     3.618558367989603        0.1279185962655787E-01
     3.626671727559086        0.1242860186325396E-01
     3.634785087128570        0.1206818698173157E-01
     3.642898446698053        0.1171056430129473E-01
     3.651011806267536        0.1135568364611009E-01
     3.659125165837020        0.1100349533754653E-01
     3.667238525406503        0.1065395018658935E-01
     3.675351884975987        0.1030699948790709E-01
     3.683465244545470        0.9962595102253662E-02
     3.691578604114953        0.9620690543173620E-02
     3.699691963684437        0.9281245783995652E-02
     3.707805323253920        0.8944237788037828E-02
     3.715918682823404        0.8609674741946268E-02
     3.724032042392887        0.8277609605157601E-02
     3.732145401962371        0.7948149543949666E-02
     3.740258761531854        0.7621459968542476E-02
     3.748372121101337        0.7297763538900231E-02
     3.756485480670821        0.6977335287962792E-02
     3.764598840240304        0.6660495172084497E-02
     3.772712199809788        0.6347599204811220E-02
     3.780825559379271        0.6039030069169834E-02
     3.788938918948754        0.5735187842131748E-02
     3.797052278518238        0.5436481245553730E-02
     3.805165638087721        0.5143319670363462E-02
     3.813278997657205        0.4856106100260594E-02
     3.821392357226688        0.4575230978659035E-02
     3.829505716796171        0.4301067008471986E-02
     3.837619076365655        0.4033964840685770E-02
     3.845732435935138        0.3774249588242227E-02
     3.853845795504621        0.3522218091950609E-02
     3.861959155074105        0.3278136861651133E-02
     3.870072514643589        0.3042240616385016E-02
     3.878185874213072        0.2814731350248563E-02
     3.886299233782555        0.2595777854854727E-02
     3.894412593352039        0.2385515634173947E-02
     3.902525952921522        0.2184047152421369E-02
     3.910639312491006        0.1991442360297815E-02
     3.918752672060489        0.1807739448941379E-02
     3.926866031629972        0.1632945784153916E-02
     3.934979391199456        0.1467038975469651E-02
     3.943092750768939        0.1309968034961496E-02
     3.951206110338423        0.1161654578472550E-02
     3.959319469907906        0.1021994015841253E-02
     3.967432829477390        0.8908566640178804E-03
     3.975546189046873        0.7680886928239092E-03
     3.983659548616356        0.6535127675867916E-03
     3.991772908185840        0.5469281651188015E-03
     3.999886267755323        0.4481099622105755E-03
     4.007999627324806        0.3568065126154980E-03
     4.016112986894290        0.2727335205021814E-03
     4.024226346463774        0.1955605800749099E-03
     4.032339706033257        0.1248782231655263E-03
     4.040453065602740        0.6010020512918399E-04
     4.048566425172224         0.000000000000000    
  0  3  2  0  0.000000   #orbital l, n, z, is_polarized, population
 500    0.5302650891675683E-02     2.646022794946166     # npts, delta, cutoff
     0.000000000000000       -0.2994316873306415    
    0.5302650891675683E-02   -0.2992981198984527    
    0.1060530178335137E-01   -0.2988872450228840    
    0.1590795267502705E-01   -0.2982026566063705    
    0.2121060356670273E-01   -0.2972446671342387    
    0.2651325445837842E-01   -0.2960137118880162    
    0.3181590535005410E-01   -0.2945103497578855    
    0.3711855624172978E-01   -0.2927352630589919    
    0.4242120713340546E-01   -0.2906892571581607    
    0.4772385802508115E-01   -0.2883732600009286    
    0.5302650891675683E-01   -0.2857883215571893    
    0.5832915980843251E-01   -0.2829356131907752    
    0.6363181070010819E-01   -0.2798164269550933    
    0.6893446159178387E-01   -0.2764321748159942    
    0.7423711248345956E-01   -0.2727843878027366    
    0.7953976337513524E-01   -0.2688747150878332    
    0.8484241426681093E-01   -0.2647049229965468    
    0.9014506515848661E-01   -0.2602768939468285    
    0.9544771605016229E-01   -0.2555926253205250    
    0.1007503669418380       -0.2506542282667312    
    0.1060530178335137       -0.2454639264382005    
    0.1113556687251893       -0.2400240546617785    