<preamble>

<basis_specs>
===============================================================================
Bi                   Z=  83    Mass=  208.98        Charge= 0.17977+309
Lmxo=2 Lmxkb= 3    BasisType=split      Semic=T
L=0  Nsemic=0  Cnfigmx=6
          i=1  nzeta=2  polorb=0  (6s)
            splnorm:   0.15000    
               vcte:    40.000    
               rinn:    4.8921    
               qcoe:    0.0000    
               qyuk:    0.0000    
               qwid:   0.10000E-01
                rcs:    5.4357      3.7893    
            lambdas:    1.0000      1.0000    
L=1  Nsemic=0  Cnfigmx=6
          i=1  nzeta=2  polorb=0  (6p)  (to be polarized non-perturbatively)
            splnorm:   0.15000    
               vcte:    40.000    
               rinn:    6.7676    
               qcoe:    0.0000    
               qyuk:    0.0000    
               qwid:   0.10000E-01
                rcs:    7.5195      5.3708    
            lambdas:    1.0000      1.0000    
L=2  Nsemic=1  Cnfigmx=6
          i=1  nzeta=1  polorb=0  (5d)  (semicore shell)
            splnorm:   0.15000    
               vcte:    40.000    
               rinn:    3.2829    
               qcoe:    0.0000    
               qyuk:    0.0000    
               qwid:   0.10000E-01
                rcs:    3.6477    
            lambdas:    1.0000    
          i=2  nzeta=1  polorb=0  (6d)  (non-perturbative polarization shell)
            splnorm:   0.15000    
               vcte:    40.000    
               rinn:    6.7743    
               qcoe:    0.0000    
               qyuk:    0.0000    
               qwid:   0.10000E-01
                rcs:    7.5195    
            lambdas:    1.0000    
-------------------------------------------------------------------------------
L=0  Nkbl=1  erefs: 0.17977+309
L=1  Nkbl=1  erefs: 0.17977+309
L=2  Nkbl=2  erefs: 0.17977+309 0.17977+309
L=3  Nkbl=1  erefs: 0.17977+309
===============================================================================
</basis_specs>

<pseudopotential_header>
 Bi pb nrl pcec
 ONCVPSP-4.2023-03-20Hamann's oncvpsp                        
 6s 2.00  r= 2.41/6p 3.00  r= 2.51/5d10.00  r= 2.11/5f 0.00  r= 2.11/   5d:6s:6p:
</pseudopotential_header>
</preamble>
Bi                            # Symbol
Bi                            # Label
   83                         # Atomic number
     15.0000000000                             # Valence charge
     208.980000000        # Mass 
     179.165384623        # Self energy 
   2   6                      # Lmax for basis, no. of nl orbitals 
   3   8                      # Lmax for projectors, no. of nl KB projectors
# PAOs:__________________________
  0  6  1  0  2.000000   #orbital l, n, z, is_polarized, population
 500    0.1089322465182222E-01     5.435719101259290     # npts, delta, cutoff
     0.000000000000000        0.6311378665067618E-01
    0.1089322465182222E-01    0.6317275170070889E-01
    0.2178644930364445E-01    0.6335431806812612E-01
    0.3267967395546667E-01    0.6365674494988070E-01
    0.4357289860728889E-01    0.6407975530674655E-01
    0.5446612325911111E-01    0.6462296244376720E-01
    0.6535934791093334E-01    0.6528587049160985E-01
    0.7625257256275556E-01    0.6606787529766624E-01
    0.8714579721457778E-01    0.6696826554307636E-01
    0.9803902186640001E-01    0.6798622406220914E-01
    0.1089322465182222        0.6912082935666508E-01
    0.1198254711700445        0.7037105729822732E-01
    0.1307186958218667        0.7173578301538280E-01
    0.1416119204736889        0.7321378295773730E-01
    0.1525051451255111        0.7480373713222820E-01
    0.1633983697773334        0.7650423150459100E-01
    0.1742915944291556        0.7831376055909224E-01
    0.1851848190809778        0.8023073000911678E-01
    0.1960780437328000        0.8225345965079130E-01
    0.2069712683846222        0.8438018635144633E-01
    0.2178644930364445        0.8660906716436524E-01
    0.2287577176882667        0.8893818256094360E-01
    0.2396509423400889        0.9136553977108469E-01
    0.2505441669919111        0.9388907622238929E-01
    0.2614373916437334        0.9650666306846507E-01
    0.2723306162955555        0.9921610879647345E-01
    0.2832238409473778        0.1020151629038629    
    0.2941170655992000        0.1049015196340991    
    0.3050102902510222        0.1078728217610964    
    0.3159035149028445        0.1109266644119877    
    0.3267967395546667        0.1140605989178290    
    0.3376899642064889        0.1172721366818394    
    0.3485831888583111        0.1205587530548043    
    0.3594764135101334        0.1239178912073387    
    0.3703696381619556        0.1273469659888100    
    0.3812628628137778        0.1308433677628498    
    0.3921560874656000        0.1344044662095563    
    0.4030493121174222        0.1380276140846847    
    0.4139425367692445        0.1417101509263561    
    0.4248357614210667        0.1454494067000766    
    0.4357289860728889        0.1492427053731498    
    0.4466222107247111        0.1530873684098847    
    0.4575154353765334        0.1569807181793505    
    0.4684086600283556        0.1609200812678015    
    0.4793018846801778        0.1649027916882907    
    0.4901951093320001        0.1689261939804181    
    0.5010883339838222        0.1729876461935921    
    0.5119815586356444        0.1770845227476565    
    0.5228747832874667        0.1812142171652033    
    0.5337680079392889        0.1853741446703988    
    0.5446612325911111        0.1895617446496559    
    0.5555544572429334        0.1937744829700093    
    0.5664476818947556        0.1980098541515903    
    0.5773409065465778        0.2022653833911305    
    0.5882341311984001        0.2065386284339909    
    0.5991273558502223        0.2108271812927469    
    0.6100205805020444        0.2151286698109394    
    0.6209138051538667        0.2194407590711398    
    0.6318070298056889        0.2237611526470579    
    0.6427002544575111        0.2280875936999464    
    0.6535934791093334        0.2324178659201389    
    0.6644867037611556        0.2367497943150684    
    0.6753799284129778        0.2410812458456708    
    0.6862731530648001        0.2454101299135858    
    0.6971663777166223        0.2497343987020801    
    0.7080596023684445        0.2540520473741179    
    0.7189528270202667        0.2583611141314707    
    0.7298460516720889        0.2626596801392339    
    0.7407392763239111        0.2669458693205470    
    0.7516325009757334        0.2712178480267300    
    0.7625257256275556        0.2754738245884686    
    0.7734189502793778        0.2797120487540218    
    0.7843121749312001        0.2839308110208003    
    0.7952053995830223        0.2881284418669757    
    0.8060986242348445        0.2923033108900651    
    0.8169918488866668        0.2964538258597270    
    0.8278850735384889        0.3005784316922094    
    0.8387782981903111        0.3046756093541214    
    0.8496715228421334        0.3087438747033711    
    0.8605647474939556        0.3127817772752489    
    0.8714579721457778        0.3167878990217549    
    0.8823511967976001        0.3207608530123555    
    0.8932444214494223        0.3246992821043843    
    0.9041376461012445        0.3286018575913606    
    0.9150308707530668        0.3324672778374272    
    0.9259240954048890        0.3362942669061136    
    0.9368173200567111        0.3400815731915295    
    0.9477105447085334        0.3438279680599846    
    0.9586037693603556        0.3475322445098926    
    0.9694969940121778        0.3511932158576679    
    0.9803902186640001        0.3548097144570707    
    0.9912834433158223        0.3583805904593075    
     1.002176667967644        0.3619047106208856    
     1.013069892619467        0.3653809571659081    
     1.023963117271289        0.3688082267093483    
     1.034856341923111        0.3721854292472059    
     1.045749566574933        0.3755114872195685    
     1.056642791226756        0.3787853346515945    
     1.067536015878578        0.3820059163777850    
     1.078429240530400        0.3851721873537494    
     1.089322465182222        0.3882831120598806    
     1.100215689834044        0.3913376640004164    
     1.111108914485867        0.3943348253013856    
     1.122002139137689        0.3972735864098946    
     1.132895363789511        0.4001529458972932    
     1.143788588441333        0.4029719103679932    
     1.154681813093156        0.4057294944751735    
     1.165575037744978        0.4084247210442188    
     1.176468262396800        0.4110566213044181    
     1.187361487048622        0.4136242352283204    
     1.198254711700445        0.4161266119786636    
     1.209147936352267        0.4185628104612661    
     1.220041161004089        0.4209318999824032    
     1.230934385655911        0.4232329610086437    
     1.241827610307733        0.4254650860264406    
     1.252720834959556        0.4276273804984376    
     1.263614059611378        0.4297189639130927    
     1.274507284263200        0.4317389709237504    
     1.285400508915022        0.4336865525724054    
     1.296293733566845        0.4355608775941978    
     1.307186958218667        0.4373611337966429    
     1.318080182870489        0.4390865295089437    
     1.328973407522311        0.4407362950948511    
     1.339866632174133        0.4423096845235790    
     1.350759856825956        0.4438059769919088    
     1.361653081477778        0.4452244785909857    
     1.372546306129600        0.4465645240109614    
     1.383439530781422        0.4478254782761785    
     1.394332755433245        0.4490067385036871    
     1.405225980085067        0.4501077356776351    
     1.416119204736889        0.4511279364319143    
     1.427012429388711        0.4520668448332931    
     1.437905654040533        0.4529240041574528    
     1.448798878692356        0.4536989986498428    
     1.459692103344178        0.4543914552639451    
     1.470585327996000        0.4550010453687304    
     1.481478552647822        0.4555274864179369    
     1.492371777299645        0.4559705435732468    
     1.503265001951467        0.4563300312740373    
     1.514158226603289        0.4566058147461775    
     1.525051451255111        0.4567978114426841    
     1.535944675906934        0.4569059924092577    
     1.546837900558756        0.4569303835677071    
     1.557731125210578        0.4568710669111287    
     1.568624349862400        0.4567281816039591    
     1.579517574514222        0.4565019249814939    
     1.590410799166045        0.4561925534429379    
     1.601304023817867        0.4558003832326244    
     1.612197248469689        0.4553257911048021    
     1.623090473121511        0.4547692148668912    
     1.633983697773334        0.4541311537977504    
     1.644876922425156        0.4534121689366040    
     1.655770147076978        0.4526128832396635    
     1.666663371728800        0.4517339816016628    
     1.677556596380622        0.4507762107396396    
     1.688449821032445        0.4497403789373170    
     1.699343045684267        0.4486273556485914    
     1.710236270336089        0.4474380709590827    
     1.721129494987911        0.4461735149054493    
     1.732022719639734        0.4448347366496844    
     1.742915944291556        0.4434228552720328    
     1.753809168943378        0.4419390326305347    
     1.764702393595200        0.4403844794397804    
     1.775595618247022        0.4387604703266865    
     1.786488842898845        0.4370683328364903    
     1.797382067550667        0.4353094457807126    
     1.808275292202489        0.4334852374605324    
     1.819168516854311        0.4315971837656645    
     1.830061741506134        0.4296468061530531    
     1.840954966157956        0.4276356695102552    
     1.851848190809778        0.4255653799085298    
     1.862741415461600        0.4234375822511116    
     1.873634640113422        0.4212539578228450    
     1.884527864765245        0.4190162217471871    
     1.895421089417067        0.4167261203572668    
     1.906314314068889        0.4143854284879452    
     1.917207538720711        0.4119959466960875    
     1.928100763372534        0.4095594984163545    
     1.938993988024356        0.4070779270604247    
     1.949887212676178        0.4045530930673385    
     1.960780437328000        0.4019868709132338    
     1.971673661979822        0.3993811460885680    
     1.982566886631645        0.3967378120513210    
     1.993460111283467        0.3940587671644674    
     2.004353335935289        0.3913459116265086    
     2.015246560587111        0.3886011444034431    
     2.026139785238934        0.3858263601707640    
     2.037033009890756        0.3830234462741442    
     2.047926234542578        0.3801942797172790    
     2.058819459194400        0.3773407241855707    
     2.069712683846222        0.3744646271133568    
     2.080605908498045        0.3715678168038314    
     2.091499133149867        0.3686520996084625    
     2.102392357801689        0.3657192571743104    
     2.113285582453511        0.3627710437695411    
     2.124178807105333        0.3598091836913864    
     2.135072031757156        0.3568353687646153    
     2.145965256408978        0.3538512559203189    
     2.156858481060800        0.3508584649161385    
     2.167751705712623        0.3478585761307987    
     2.178644930364444        0.3448531284919870    
     2.189538155016267        0.3418436175205575    
     2.200431379668089        0.3388314935019756    
     2.211324604319911        0.3358181597887592    
     2.222217828971734        0.3328049712383137    
     2.233111053623556        0.3297932327899746    
     2.244004278275378        0.3267841981846701    
     2.254897502927200        0.3237790688300906    
     2.265790727579022        0.3207789928139527    
     2.276683952230845        0.3177850640673428    
     2.287577176882667        0.3147983216795489    
     2.298470401534489        0.3118197493656339    
     2.309363626186311        0.3088502750871931    
     2.320256850838133        0.3058907708264266    
     2.331150075489956        0.3029420525131082    
     2.342043300141778        0.3000048801037409    
     2.352936524793600        0.2970799578112275    
     2.363829749445423        0.2941679344836973    
     2.374722974097244        0.2912694041061339    
     2.385616198749067        0.2883849065743302    
     2.396509423400889        0.2855149285107742    
     2.407402648052711        0.2826599031163302    
     2.418295872704534        0.2798202167513687    
     2.429189097356356        0.2769962231233203    
     2.440082322008178        0.2741882556471031    
     2.450975546660000        0.2713966297486822    
     2.461868771311822        0.2686216422750739    
     2.472761995963645        0.2658635724374848    
     2.483655220615467        0.2631226824383447    
     2.494548445267289        0.2603992180403432    
     2.505441669919111        0.2576934091432289    
     2.516334894570933        0.2550054703410228    
     2.527228119222756        0.2523356014608663    
     2.538121343874578        0.2496839880866687    
     2.549014568526400        0.2470508020663655    
     2.559907793178223        0.2444362020031123    
     2.570801017830044        0.2418403337311493    
     2.581694242481867        0.2392633307774078    
     2.592587467133689        0.2367053148092063    
     2.603480691785511        0.2341663960671362    
     2.614373916437334        0.2316466737851135    
     2.625267141089156        0.2291462365971484    
     2.636160365740978        0.2266651629314668    
     2.647053590392800        0.2242035213922532    
     2.657946815044622        0.2217613711294513    
     2.668840039696445        0.2193387621969776    
     2.679733264348267        0.2169357358996409    
     2.690626489000089        0.2145523251291200    
     2.701519713651911        0.2121885546893264    
     2.712412938303733        0.2098444416114765    
     2.723306162955556        0.2075199954591549    
     2.734199387607378        0.2052152186236729    
     2.745092612259200        0.2029301066100225    
     2.755985836911023        0.2006646483136866    
     2.766879061562844        0.1984188262885911    
     2.777772286214667        0.1961926170064415    
     2.788665510866489        0.1939859911077345    
     2.799558735518311        0.1917989136446849    
     2.810451960170134        0.1896313443162564    
     2.821345184821956        0.1874832376955980    
     2.832238409473778        0.1853545434501050    
     2.843131634125600        0.1832452065542863    
     2.854024858777422        0.1811551674956856    
     2.864918083429245        0.1790843624740469    
     2.875811308081067        0.1770327235939505    
     2.886704532732889        0.1750001790510980    
     2.897597757384711        0.1729866533124253    
     2.908490982036533        0.1709920672902690    
     2.919384206688356        0.1690163385107337    
     2.930277431340178        0.1670593812764416    
     2.941170655992000        0.1651211068238318    
     2.952063880643822        0.1632014234751812    
     2.962957105295644        0.1613002367855107    
     2.973850329947467        0.1594174496845239    
     2.984743554599289        0.1575529626137345    
     2.995636779251111        0.1557066736589163    
     3.006530003902934        0.1538784786780166    
     3.017423228554756        0.1520682714247205    
     3.028316453206578        0.1502759436677391    
     3.039209677858400        0.1485013853059494    
     3.050102902510222        0.1467444844795729    
     3.060996127162045        0.1450051276774644    
     3.071889351813867        0.1432831998406504    
     3.082782576465689        0.1415785844622232    
     3.093675801117511        0.1398911636836956    
     3.104569025769333        0.1382208183879522    
     3.115462250421156        0.1365674282888777    
     3.126355475072978        0.1349308720177791    
     3.137248699724800        0.1333110272066902    
     3.148141924376622        0.1317077705686653    
     3.159035149028445        0.1301209779751478    
     3.169928373680267        0.1285505245304984    
     3.180821598332089        0.1269962846438026    
     3.191714822983911        0.1254581320980107    
     3.202608047635734        0.1239359401164887    
     3.213501272287556        0.1224295814270904    
     3.224394496939378        0.1209389283238229    
     3.235287721591200        0.1194638527261609    
     3.246180946243022        0.1180042262360899    
     3.257074170894845        0.1165599201929690    
     3.267967395546667        0.1151308057262666    
     3.278860620198489        0.1137167538062322    
     3.289753844850311        0.1123176352925815    
     3.300647069502133        0.1109333209812524    
     3.311540294153956        0.1095636816492940    
     3.322433518805778        0.1082085880979571    
     3.333326743457600        0.1068679111940218    
     3.344219968109422        0.1055415219094384    
     3.355113192761245        0.1042292913593310    
     3.366006417413067        0.1029310908384218    
     3.376899642064889        0.1016467918559085    
     3.387792866716711        0.1003762661688665    
     3.398686091368534        0.9911938581421417E-01
     3.409579316020356        0.9787602313928924E-01
     3.420472540672178        0.9664605083108205E-01
     3.431365765324000        0.9542934194416751E-01
     3.442258989975822        0.9422576992738305E-01
     3.453152214627645        0.9303520864928798E-01
     3.464045439279467        0.9185753242245605E-01
     3.474938663931289        0.9069261602662132E-01
     3.485831888583111        0.8954033473073575E-01
     3.496725113234934        0.8840056431395826E-01
     3.507618337886756        0.8727318108562786E-01
     3.518511562538578        0.8615806190423500E-01
     3.529404787190400        0.8505508419544246E-01
     3.540298011842222        0.8396412596917804E-01
     3.551191236494045        0.8288506583583755E-01
     3.562084461145867        0.8181778302161966E-01
     3.572977685797689        0.8076215738303190E-01
     3.583870910449511        0.7971806942058694E-01
     3.594764135101334        0.7868540029172567E-01
     3.605657359753156        0.7766403182298967E-01
     3.616550584404978        0.7665384652147172E-01
     3.627443809056800        0.7565472758556285E-01
     3.638337033708622        0.7466655891502870E-01
     3.649230258360445        0.7368922512043292E-01
     3.660123483012267        0.7272261153193557E-01
     3.671016707664089        0.7176660420748815E-01
     3.681909932315911        0.7082108994044350E-01
     3.692803156967734        0.6988595626660013E-01
     3.703696381619556        0.6896109147070643E-01
     3.714589606271378        0.6804638459244514E-01
     3.725482830923200        0.6714172543191332E-01
     3.736376055575022        0.6624700455461457E-01
     3.747269280226845        0.6536211329598400E-01
     3.758162504878667        0.6448694376546758E-01
     3.769055729530489        0.6362138885016465E-01
     3.779948954182311        0.6276534221805498E-01
     3.790842178834134        0.6191869832082261E-01
     3.801735403485956        0.6108135239629581E-01
     3.812628628137778        0.6025320047051248E-01
     3.823521852789600        0.5943413935943336E-01
     3.834415077441423        0.5862406667030439E-01
     3.845308302093245        0.5782288080269643E-01
     3.856201526745067        0.5703048094922246E-01
     3.867094751396889        0.5624676709595231E-01
     3.877987976048711        0.5547164002253261E-01
     3.888881200700534        0.5470500130202727E-01
     3.899774425352356        0.5394675330048621E-01
     3.910667650004178        0.5319679917625636E-01
     3.921560874656000        0.5245504287904360E-01
     3.932454099307822        0.5172138914873665E-01
     3.943347323959645        0.5099574351400114E-01
     3.954240548611467        0.5027801229065571E-01
     3.965133773263289        0.4956810257983767E-01
     3.976026997915111        0.4886592226596752E-01
     3.986920222566934        0.4817138001452183E-01
     3.997813447218756        0.4748438526962123E-01
     4.008706671870578        0.4680484825143869E-01
     4.019599896522401        0.4613267995343622E-01
     4.030493121174223        0.4546779213954887E-01
     4.041386345826044        0.4481009734082536E-01
     4.052279570477867        0.4415950885257788E-01
     4.063172795129689        0.4351594073094243E-01
     4.074066019781512        0.4287930778851116E-01
     4.084959244433334        0.4224952559081276E-01
     4.095852469085155        0.4162651045750284E-01
     4.106745693736978        0.4101017945509371E-01
     4.117638918388800        0.4040045038244695E-01
     4.128532143040623        0.3979724177866544E-01
     4.139425367692445        0.3920047292509827E-01
     4.150318592344267        0.3861006383001200E-01
     4.161211816996089        0.3802593522293449E-01
     4.172105041647911        0.3744800855547911E-01
     4.182998266299734        0.3687620599616456E-01
     4.193891490951556        0.3631045042501422E-01
     4.204784715603378        0.3575066542902462E-01
     4.215677940255200        0.3519677529742678E-01
     4.226571164907022        0.3464870501685857E-01
     4.237464389558845        0.3410638026653806E-01
     4.248357614210667        0.3356972741336580E-01
     4.259250838862489        0.3303867350694629E-01
     4.270144063514311        0.3251314627456844E-01
     4.281037288166133        0.3199307411614318E-01
     4.291930512817956        0.3147838609909700E-01
     4.302823737469778        0.3096901195322528E-01
     4.313716962121600        0.3046488206550818E-01
     4.324610186773422        0.2996592747489250E-01
     4.335503411425245        0.2947207986704071E-01
     4.346396636077067        0.2898327156905153E-01
     4.357289860728889        0.2849943554415314E-01
     4.368183085380712        0.2802050538637244E-01
     4.379076310032533        0.2754641531518166E-01
     4.389969534684356        0.2707710017012480E-01
     4.400862759336178        0.2661249540542749E-01
     4.411755983988000        0.2615253708458887E-01
     4.422649208639823        0.2569716187496170E-01
     4.433542433291644        0.2524630704231964E-01
     4.444435657943467        0.2479991044541335E-01
     4.455328882595289        0.2435791053051979E-01
     4.466222107247112        0.2392024632598354E-01
     4.477115331898934        0.2348685743675367E-01
     4.488008556550755        0.2305768403891638E-01
     4.498901781202578        0.2263266687422499E-01
     4.509795005854400        0.2221174724463071E-01
     4.520688230506223        0.2179486700681202E-01
     4.531581455158045        0.2138196856670764E-01
     4.542474679809867        0.2097299487405171E-01
     4.553367904461689        0.2056788941691247E-01
     4.564261129113511        0.2016659621623811E-01
     4.575154353765334        0.1976905982040774E-01
     4.586047578417156        0.1937522529979080E-01
     4.596940803068978        0.1898503824131449E-01
     4.607834027720800        0.1859844474304066E-01
     4.618727252372622        0.1821539140875375E-01
     4.629620477024445        0.1783582534255907E-01
     4.640513701676267        0.1745969414349453E-01
     4.651406926328089        0.1708694590015424E-01
     4.662300150979911        0.1671752918532601E-01
     4.673193375631733        0.1635139305064367E-01
     4.684086600283556        0.1598848702125402E-01
     4.694979824935378        0.1562876109050022E-01
     4.705873049587201        0.1527216571462065E-01
     4.716766274239022        0.1491865180746601E-01
     4.727659498890845        0.1456817073523267E-01
     4.738552723542667        0.1422067431121508E-01
     4.749445948194489        0.1387611479057638E-01
     4.760339172846312        0.1353444486513799E-01
     4.771232397498133        0.1319561765818937E-01
     4.782125622149956        0.1285958671931708E-01
     4.793018846801778        0.1252630601925473E-01
     4.803912071453600        0.1219572994475292E-01
     4.814805296105423        0.1186781329347126E-01
     4.825698520757244        0.1154251126889173E-01
     4.836591745409067        0.1121977947525298E-01
     4.847484970060889        0.1089957391250798E-01
     4.858378194712712        0.1058185097130234E-01
     4.869271419364534        0.1026656742797717E-01
     4.880164644016356        0.9953680439592869E-02
     4.891057868668178        0.9643147538977808E-02
     4.901951093320000        0.9334926629799145E-02
     4.912844317971823        0.9028975981656783E-02
     4.923737542623645        0.8725254225273519E-02
     4.934630767275467        0.8423720361634553E-02
     4.945523991927289        0.8124334120772887E-02
     4.956417216579111        0.7827058611408097E-02
     4.967310441230934        0.7531868528895610E-02
     4.978203665882756        0.7238764212613440E-02
     4.989096890534578        0.6947787532682081E-02
     4.999990115186400        0.6659034831946629E-02
     5.010883339838222        0.6372664207328954E-02
     5.021776564490045        0.6088896712823061E-02
     5.032669789141867        0.5808012455343159E-02
     5.043563013793690        0.5530343056145423E-02
     5.054456238445511        0.5256261920821882E-02
     5.065349463097333        0.4986173502750398E-02
     5.076242687749156        0.4720502435300604E-02
     5.087135912400978        0.4459683128317028E-02
     5.098029137052801        0.4204150201281088E-02
     5.108922361704622        0.3954329960228604E-02
     5.119815586356445        0.3710633009165736E-02
     5.130708811008267        0.3473448008410173E-02
     5.141602035660089        0.3243136541907089E-02
     5.152495260311912        0.3020029025022729E-02
     5.163388484963733        0.2804421567431964E-02
     5.174281709615556        0.2596573698016654E-02
     5.185174934267378        0.2396706856992441E-02
     5.196068158919200        0.2205003562569590E-02
     5.206961383571023        0.2021607163808517E-02
     5.217854608222845        0.1846622096910112E-02
     5.228747832874667        0.1680114568289749E-02
     5.239641057526489        0.1522113593932633E-02
     5.250534282178312        0.1372612330380356E-02
     5.261427506830134        0.1231569637970520E-02
     5.272320731481956        0.1098911821387414E-02
     5.283213956133778        0.9745344958480329E-03
     5.294107180785600        0.8583045288710575E-03
     5.305000405437423        0.7500620067434526E-03
     5.315893630089245        0.6496221700861352E-03
     5.326786854741067        0.5567772516427881E-03
     5.337680079392889        0.4712981263353984E-03
     5.348573304044711        0.3929356379195570E-03
     5.359466528696534        0.3214213744825991E-03
     5.370359753348356        0.2564674702884120E-03
     5.381252978000179        0.1977645676283294E-03
     5.392146202652000        0.1449759486840526E-03
     5.403039427303822        0.9772255046311235E-04
     5.413932651955645        0.5554205745264045E-04
     5.424825876607467        0.1773754431459526E-04
     5.435719101259290         0.000000000000000    
  0  6  2  0  0.000000   #orbital l, n, z, is_polarized, population
 500    0.7593886363489820E-02     3.789349295381420     # npts, delta, cutoff
     0.000000000000000       -0.2947431711128673    
    0.7593886363489820E-02   -0.2946856017577413    
    0.1518777272697964E-01   -0.2945033555729605    
    0.2278165909046946E-01   -0.2941996974784050    
    0.3037554545395928E-01   -0.2937747609623562    
    0.3796943181744910E-01   -0.2932287314775385    
    0.4556331818093892E-01   -0.2925618469737293    
    0.5315720454442874E-01   -0.2917743977816606    
    0.6075109090791856E-01   -0.2908667263743827    