<preamble>

<basis_specs>
===============================================================================
Ca                   Z=  20    Mass=  40.078        Charge= 0.17977+309
Lmxo=1 Lmxkb= 2    BasisType=split      Semic=T
L=0  Nsemic=1  Cnfigmx=4
          i=1  nzeta=1  polorb=0  (3s)  (semicore shell)
            splnorm:   0.15000    
               vcte:    40.000    
               rinn:    3.0116    
               qcoe:    0.0000    
               qyuk:    0.0000    
               qwid:   0.10000E-01
                rcs:    3.3463    
            lambdas:    1.0000    
          i=2  nzeta=2  polorb=0  (4s)  (to be polarized non-perturbatively)
            splnorm:   0.15000    
               vcte:    40.000    
               rinn:    8.0878    
               qcoe:    0.0000    
               qyuk:    0.0000    
               qwid:   0.10000E-01
                rcs:    8.9864      6.6547    
            lambdas:    1.0000      1.0000    
L=1  Nsemic=1  Cnfigmx=4
          i=1  nzeta=1  polorb=0  (3p)  (semicore shell)
            splnorm:   0.15000    
               vcte:    40.000    
               rinn:    3.4482    
               qcoe:    0.0000    
               qyuk:    0.0000    
               qwid:   0.10000E-01
                rcs:    3.8275    
            lambdas:    1.0000    
          i=2  nzeta=1  polorb=0  (4p)  (non-perturbative polarization shell)
            splnorm:   0.15000    
               vcte:    40.000    
               rinn:    8.0959    
               qcoe:    0.0000    
               qyuk:    0.0000    
               qwid:   0.10000E-01
                rcs:    8.9864    
            lambdas:    1.0000    
-------------------------------------------------------------------------------
L=0  Nkbl=2  erefs: 0.17977+309 0.17977+309
L=1  Nkbl=2  erefs: 0.17977+309 0.17977+309
L=2  Nkbl=1  erefs: 0.17977+309
===============================================================================
</basis_specs>

<pseudopotential_header>
 Ca pb nrl pcec
 ONCVPSP-3.2017-10-31Hamann's oncvpsp                        
 3s 2.00  r= 1.46/3p 6.00  r= 1.46/3d 0.00  r= 1.85/                    3s:3p:4s:
</pseudopotential_header>
</preamble>
Ca                            # Symbol
Ca                            # Label
   20                         # Atomic number
     10.0000000000                             # Valence charge
     40.0780000000        # Mass 
     121.923851999        # Self energy 
   1   5                      # Lmax for basis, no. of nl orbitals 
   2   6                      # Lmax for projectors, no. of nl KB projectors
# PAOs:__________________________
  0  3  1  0  2.000000   #orbital l, n, z, is_polarized, population
 500    0.6705949050124308E-02     3.346268576012029     # npts, delta, cutoff
     0.000000000000000        0.5342212564763531    
    0.6705949050124308E-02    0.5343469994469432    
    0.1341189810024862E-01    0.5347507595361547    
    0.2011784715037292E-01    0.5354232936694218    
    0.2682379620049723E-01    0.5363639866742755    
    0.3352974525062154E-01    0.5375719821686280    
    0.4023569430074585E-01    0.5390461812227298    
    0.4694164335087015E-01    0.5407852431665934    
    0.5364759240099446E-01    0.5427875868820711    
    0.6035354145111877E-01    0.5450513923938987    
    0.6705949050124307E-01    0.5475746027212898    
    0.7376543955136738E-01    0.5503549259782791    
    0.8047138860149169E-01    0.5533898377174725    
    0.8717733765161600E-01    0.5566765835136828    
    0.9388328670174030E-01    0.5602121817844316    
    0.1005892357518646        0.5639934268443568    
    0.1072951848019889        0.5680168921904456    
    0.1140011338521132        0.5722789340148317    
    0.1207070829022375        0.5767756949416893    
    0.1274130319523618        0.5815031079845140    
    0.1341189810024861        0.5864569007198600    
    0.1408249300526105        0.5916325996733494    
    0.1475308791027348        0.5970255349135254    
    0.1542368281528591        0.6026308448488856    
    0.1609427772029834        0.6084434812231764    
    0.1676487262531077        0.6144582143037786    
    0.1743546753032320        0.6206696382577905    
    0.1810606243533563        0.6270721767101292    
    0.1877665734034806        0.6336600884777752    
    0.1944725224536049        0.6404274734740006    
    0.2011784715037292        0.6473682787762076    
    0.2078844205538535        0.6544763048507534    
    0.2145903696039778        0.6617452119279078    
    0.2212963186541022        0.6691685265198650    
    0.2280022677042265        0.6767396480744904    
    0.2347082167543508        0.6844518557572801    
    0.2414141658044751        0.6922983153537938    
    0.2481201148545994        0.7002720862845956    
    0.2548260639047237        0.7083661287245613    
    0.2615320129548480        0.7165733108182059    
    0.2682379620049723        0.7248864159825037    
    0.2749439110550966        0.7332981502885021    
    0.2816498601052209        0.7418011499128442    
    0.2883558091553452        0.7503879886502209    
    0.2950617582054695        0.7590511854775431    
    0.3017677072555938        0.7677832121605781    
    0.3084736563057182        0.7765765008936387    
    0.3151796053558424        0.7854234519628023    
    0.3218855544059668        0.7943164414230783    
    0.3285915034560911        0.8032478287798416    
    0.3352974525062154        0.8122099646648157    
    0.3420034015563397        0.8211951984968228    
    0.3487093506064640        0.8301958861175165    
    0.3554152996565883        0.8392043973922918    
    0.3621212487067126        0.8482131237665580    
    0.3688271977568369        0.8572144857676525    
    0.3755331468069612        0.8662009404426207    
    0.3822390958570855        0.8751649887222313    
    0.3889450449072098        0.8840991827016687    
    0.3956509939573342        0.8929961328283739    
    0.4023569430074584        0.9018485149877374    
    0.4090628920575828        0.9106490774773918    
    0.4157688411077071        0.9193906478610445    
    0.4224747901578314        0.9280661396930050    
    0.4291807392079557        0.9366685591046623    
    0.4358866882580800        0.9451910112445038    
    0.4425926373082043        0.9536267065633807    
    0.4492985863583286        0.9619689669370561    
    0.4560045354084529        0.9702112316183126    
    0.4627104844585772        0.9783470630111482    
    0.4694164335087015        0.9863701522599686    
    0.4761223825588258        0.9942743246469272    
    0.4828283316089502         1.002053544790875    
    0.4895342806590744         1.009701921641869    
    0.4962402297091988         1.017213713265333    
    0.5029461787593230         1.024583331410583    
    0.5096521278094474         1.031805345858523    
    0.5163580768595717         1.038874488544024    
    0.5230640259096960         1.045785657448653    
    0.5297699749598203         1.052533920259953    
    0.5364759240099446         1.059114517793841    
    0.5431818730600689         1.065522867177244    
    0.5498878221101933         1.071754564788243    
    0.5565937711603175         1.077805388951865    
    0.5632997202104418         1.083671302389567    
    0.5700056692605662         1.089348454421475    
    0.5767116183106904         1.094833182920349    
    0.5834175673608147         1.100122016017082    
    0.5901235164109391         1.105211673557807    
    0.5968294654610634         1.110099068313090    
    0.6035354145111876         1.114781306940275    
    0.6102413635613120         1.119255690700288    
    0.6169473126114363         1.123519715930806    
    0.6236532616615607         1.127571074277996    
    0.6303592107116849         1.131407652689470    
    0.6370651597618092         1.135027533171525    
    0.6437711088119336         1.138428992314073    
    0.6504770578620578         1.141610500587096    
    0.6571830069121821         1.144570721412806    
    0.6638889559623065         1.147308510017991    
    0.6705949050124308         1.149822912071448    
    0.6773008540625550         1.152113162111656    
    0.6840068031126794         1.154178681770190    
    0.6907127521628037         1.156019077796618    
    0.6974187012129280         1.157634139890954    
    0.7041246502630523         1.159023838349929    
    0.7108305993131766         1.160188321533620    
    0.7175365483633009         1.161127913159196    
    0.7242424974134252         1.161843109428660    
    0.7309484464635495         1.162334575997794    
    0.7376543955136738         1.162603144793492    
    0.7443603445637982         1.162649810686941    
    0.7510662936139224         1.162475728030167    
    0.7577722426640467         1.162082207063574    
    0.7644781917141711         1.161470710202160    
    0.7711841407642954         1.160642848208207    
    0.7778900898144196         1.159600376258236    
    0.7845960388645440         1.158345189912025    
    0.7913019879146683         1.156879320991548    
    0.7980079369647926         1.155204933377633    
    0.8047138860149169         1.153324318732091    
    0.8114198350650412         1.151239892153050    
    0.8181257841151656         1.148954187771153    
    0.8248317331652898         1.146469854294170    
    0.8315376822154141         1.143789650507472    
    0.8382436312655385         1.140916440737741    
    0.8449495803156628         1.137853190287114    
    0.8516555293657870         1.134602960844826    
    0.8583614784159114         1.131168905883269    
    0.8650674274660357         1.127554266045221    
    0.8717733765161599         1.123762364528776    
    0.8784793255662843         1.119796602476399    
    0.8851852746164086         1.115660454369842    
    0.8918912236665330         1.111357480034961    
    0.8985971727166572         1.106891278607686    
    0.9053031217667815         1.102265508545623    
    0.9120090708169059         1.097483892115765    
    0.9187150198670302         1.092550202280570    
    0.9254209689171544         1.087468258276506    
    0.9321269179672788         1.082241921239929    
    0.9388328670174031         1.076875089884671    
    0.9455388160675273         1.071371696235451    
    0.9522447651176517         1.065735701420996    
    0.9589507141677760         1.059971091530516    
    0.9656566632179003         1.054081873536921    
    0.9723626122680246         1.048072071289964    
    0.9790685613181489         1.041945721582257    
    0.9857745103682732         1.035706870290802    
    0.9924804594183976         1.029359568596621    
    0.9991864084685218         1.022907869284636    
     1.005892357518646         1.016355823125903    
     1.012598306568770         1.009707475344027    
     1.019304255618895         1.002966862167397    
     1.026010204669019        0.9961380074686753    
     1.032716153719143        0.9892249194926342    
     1.039422102769268        0.9822315876737731    
     1.046128051819392        0.9751619795442301    
     1.052834000869516        0.9680200377329370    
     1.059539949919641        0.9608096770563742    
     1.066245898969765        0.9535347817016804    
     1.072951848019889        0.9461992025020678    
     1.079657797070013        0.9388067543048484    
     1.086363746120138        0.9313612134320530    
     1.093069695170262        0.9238663152335707    
     1.099775644220387        0.9163257517326118    
     1.106481593270511        0.9087431693631167    
     1.113187542320635        0.9011221667988576    
     1.119893491370759        0.8934662928735462    
     1.126599440420884        0.8857790445916884    
     1.133305389471008        0.8780638652292898    
     1.140011338521132        0.8703241425239475    
     1.146717287571257        0.8625632069532962    
     1.153423236621381        0.8547843301014256    
     1.160129185671505        0.8469907231121176    
     1.166835134721629        0.8391855352282399    
     1.173541083771754        0.8313718524161868    
     1.180247032821878        0.8235526960746745    
     1.186952981872002        0.8157310218268240    
     1.193658930922127        0.8079097183945698    
     1.200364879972251        0.8000916065544712    
     1.207070829022375        0.7922794381738084    
     1.213776778072500        0.7844758953262539    
     1.220482727122624        0.7766835894856878    
     1.227188676172748        0.7689050607976716    
     1.233894625222873        0.7611427774269327    
     1.240600574272997        0.7533991349806255    
     1.247306523323121        0.7456764560055300    
     1.254012472373246        0.7379769895589542    
     1.260718421423370        0.7303029108516875    
     1.267424370473494        0.7226563209624816    
     1.274130319523618        0.7150392466227815    
     1.280836268573743        0.7074536400707672    
     1.287542217623867        0.6999013789737626    
     1.294248166673991        0.6923842664178351    
     1.300954115724116        0.6849040309638732    
     1.307660064774240        0.6774623267688282    
     1.314366013824364        0.6700607337712755    
     1.321071962874489        0.6627007579401768    
     1.327777911924613        0.6553838315858783    
     1.334483860974737        0.6481113137322880    
     1.341189810024862        0.6408844905491751    
     1.347895759074986        0.6337045758434280    
     1.354601708125110        0.6265727116084029    
     1.361307657175234        0.6194899686299628    
     1.368013606225359        0.6124573471483936    
     1.374719555275483        0.6054757775748556    
     1.381425504325607        0.5985461212611428    
     1.388131453375732        0.5916691713219729    
     1.394837402425856        0.5848456535080470    
     1.401543351475980        0.5780762271295667    
     1.408249300526105        0.5713614860264212    
     1.414955249576229        0.5647019595310585    
     1.421661198626353        0.5580981135166786    
     1.428367147676477        0.5515503518252900    
     1.435073096726602        0.5450590178417041    
     1.441779045776726        0.5386243946443988    
     1.448484994826850        0.5322467047220754    
     1.455190943876975        0.5259261116723983    
     1.461896892927099        0.5196627264535295    
     1.468602841977223        0.5134566151170833    
     1.475308791027348        0.5073078074164351    
     1.482014740077472        0.5012163052602008    
     1.488720689127596        0.4951820898196459    
     1.495426638177721        0.4892051231310373    
     1.502132587227845        0.4832853472962524    
     1.508838536277969        0.4774226836732285    
     1.515544485328093        0.4716170341489404    
     1.522250434378218        0.4658682823392264    
     1.528956383428342        0.4601762945331256    
     1.535662332478466        0.4545409203641755    
     1.542368281528591        0.4489619935670034    
     1.549074230578715        0.4434393326629948    
     1.555780179628839        0.4379727416679344    
     1.562486128678964        0.4325620107587166    
     1.569192077729088        0.4272069169374951    
     1.575898026779212        0.4219072246565252    
     1.582603975829337        0.4166626864267733    
     1.589309924879461        0.4114730434044463    
     1.596015873929585        0.4063380259593483    
     1.602721822979710        0.4012573542233121    
     1.609427772029834        0.3962307386197642    
     1.616133721079958        0.3912578803751788    
     1.622839670130082        0.3863384720128745    
     1.629545619180207        0.3814721978297782    
     1.636251568230331        0.3766587343566710    
     1.642957517280455        0.3718977508024217    
     1.649663466330580        0.3671889094826984    
     1.656369415380704        0.3625318662336618    
     1.663075364430828        0.3579262708111172    
     1.669781313480952        0.3533717672755888    
     1.676487262531077        0.3488679943636617    
     1.683193211581201        0.3444145858462322    
     1.689899160631326        0.3400111708739121    
     1.696605109681450        0.3356573743099417    
     1.703311058731574        0.3313528170512736    
     1.710017007781699        0.3270971163379625    
     1.716722956831823        0.3228898860511828    
     1.723428905881947        0.3187307370005703    
     1.730134854932071        0.3146192772009166    
     1.736840803982196        0.3105551121385282    
     1.743546753032320        0.3065378450279105    
     1.750252702082444        0.3025670770588051    
     1.756958651132569        0.2986424076337963    
     1.763664600182693        0.2947634345971769    
     1.770370549232817        0.2909297544550480    
     1.777076498282941        0.2871409625868639    
     1.783782447333066        0.2833966534490091    
     1.790488396383190        0.2796964207704527    
     1.797194345433314        0.2760398577406505    
     1.803900294483439        0.2724265571901398    
     1.810606243533563        0.2688561117640108    
     1.817312192583687        0.2653281140883524    
     1.824018141633812        0.2618421569299648    
     1.830724090683936        0.2583978333497035    
     1.837430039734060        0.2549947368494249    
     1.844135988784185        0.2516324615127620    
     1.850841937834309        0.2483106021401728    
     1.857547886884433        0.2450287543781657    
     1.864253835934558        0.2417865148429262    
     1.870959784984682        0.2385834812387043    
     1.877665734034806        0.2354192524709585    
     1.884371683084930        0.2322934287544297    
     1.891077632135055        0.2292056117163865    
     1.897783581185179        0.2261554044951669    
     1.904489530235303        0.2231424118341307    
     1.911195479285428        0.2201662401711685    
     1.917901428335552        0.2172264977239881    
     1.924607377385676        0.2143227945712229    
     1.931313326435801        0.2114547427295193    
     1.938019275485925        0.2086219562267642    
     1.944725224536049        0.2058240511715487    
     1.951431173586174        0.2030606458189883    
     1.958137122636298        0.2003313606330256    
     1.964843071686422        0.1976358183453290    
     1.971549020736546        0.1949736440108926    
     1.978254969786671        0.1923444650604572    
     1.984960918836795        0.1897479113498306    
     1.991666867886919        0.1871836152062357    
     1.998372816937044        0.1846512114717728    
     2.005078765987168        0.1821503375440960    
     2.011784715037292        0.1796806334143796    
     2.018490664087417        0.1772417417026824    
     2.025196613137541        0.1748333076908088    
     2.031902562187665        0.1724549793527093    
     2.038608511237789        0.1701064073825392    
     2.045314460287914        0.1677872452204428    
     2.052020409338038        0.1654971490761544    
     2.058726358388162        0.1632357779504572    
     2.065432307438287        0.1610027936546024    
     2.072138256488411        0.1587978608277646    
     2.078844205538535        0.1566206469525749    
     2.085550154588660        0.1544708223688166    
     2.092256103638784        0.1523480602853471    
     2.098962052688908        0.1502520367903070    
     2.105668001739033        0.1481824308596728    
     2.112373950789157        0.1461389243642200    
     2.119079899839281        0.1441212020749490    
     2.125785848889405        0.1421289516670262    
     2.132491797939530        0.1401618637223055    
     2.139197746989654        0.1382196317304729    
     2.145903696039778        0.1363019520888616    
     2.152609645089903        0.1344085241009906    
     2.159315594140027        0.1325390499738894    
     2.166021543190151        0.1306932348142307    
     2.172727492240276        0.1288707866233165    
     2.179433441290400        0.1270714162909773    
     2.186139390340524        0.1252948375884299    
     2.192845339390649        0.1235407671601152    
     2.199551288440773        0.1218089245145374    
     2.206257237490897        0.1200990320142028    
     2.212963186541022        0.1184108148646489    
     2.219669135591146        0.1167440011026186    
     2.226375084641270        0.1150983215833619    
     2.233081033691394        0.1134735099671989    
     2.239786982741519        0.1118693027053030    
     2.246492931791643        0.1102854390247572    
     2.253198880841767        0.1087216609128688    
     2.259904829891892        0.1071777131008798    
     2.266610778942016        0.1056533430470094    
     2.273316727992140        0.1041483009188995    
     2.280022677042265        0.1026623395754328    
     2.286728626092389        0.1011952145480566    
     2.293434575142513        0.9974668402155944E-01
     2.300140524192638        0.9831650881436495E-01
     2.306846473242762        0.9690445235819922E-01
     2.313552422292886        0.9551028067756674E-01
     2.320258371343010        0.9413376236877971E-01
     2.326964320393135        0.9277466857892475E-01
     2.333670269443259        0.9143277298331244E-01
     2.340376218493383        0.9010785176339785E-01
     2.347082167543508        0.8879968358428382E-01
     2.353788116593632        0.8750804956971900E-01
     2.360494065643756        0.8623273328210898E-01
     2.367200014693881        0.8497352070213336E-01
     2.373905963744005        0.8373020020011933E-01
     2.380611912794129        0.8250256251685115E-01
     2.387317861844254        0.8129040074218299E-01
     2.394023810894378        0.8009351026972339E-01
     2.400729759944502        0.7891168879650638E-01
     2.407435708994627        0.7774473629038087E-01
     2.414141658044751        0.7659245496573774E-01
     2.420847607094875        0.7545464924948925E-01
     2.427553556144999        0.7433112578581953E-01
     2.434259505195123        0.7322169339127299E-01
     2.440965454245248        0.7212616303059899E-01
     2.447671403295372        0.7104434779333084E-01
     2.454377352345496        0.6997606287016284E-01
     2.461083301395621        0.6892112552930513E-01
     2.467789250445745        0.6787935509309556E-01
     2.474495199495870        0.6685057291479105E-01
     2.481201148545994        0.6583460235537243E-01
     2.487907097596118        0.6483126876016276E-01
     2.494613046646243        0.6384039943572679E-01
     2.501318995696367        0.6286182362695923E-01
     2.508024944746491        0.6189537249434973E-01
     2.514730893796616        0.6094087909180582E-01
     2.521436842846740        0.5999817834477131E-01
     2.528142791896864        0.5906710702861945E-01
     2.534848740946988        0.5814750374739542E-01
     2.541554689997112        0.5723920891287249E-01
     2.548260639047237        0.5634206472392186E-01
     2.554966588097361        0.5545591514625092E-01
     2.561672537147485        0.5458060589251187E-01
     2.568378486197610        0.5371598440274437E-01
     2.575084435247734        0.5286189982523103E-01
     2.581790384297858        0.5201820299769927E-01
     2.588496333347983        0.5118474642889180E-01
     2.595202282398107        0.5036138428049858E-01
     2.601908231448231        0.4954797234943643E-01
     2.608614180498356        0.4874436805051618E-01
     2.615320129548480        0.4795043039942675E-01
     2.622026078598604        0.4716601999606834E-01
     2.628732027648728        0.4639099900817588E-01
     2.635437976698853        0.4562523115529322E-01
     2.642143925748977        0.4486858169302905E-01
     2.648849874799101        0.4412091739758819E-01
     2.655555823849226        0.4338210655057409E-01
     2.662261772899350        0.4265201892401754E-01
     2.668967721949474        0.4193052576566700E-01
     2.675673670999599        0.4121749978446827E-01
     2.682379620049723        0.4051281513623988E-01
     2.689085569099847        0.3981634740952244E-01
     2.695791518149972        0.3912797361159052E-01
     2.702497467200096        0.3844757215457909E-01
     2.709203416250220        0.3777502284174331E-01
     2.715909365300345        0.3711020685380272E-01
     2.722615314350469        0.3645300673539573E-01
     2.729321263400593        0.3580330638158349E-01
     2.736027212450717        0.3516099102437543E-01
     2.742733161500842        0.3452594721932230E-01
     2.749439110550966        0.3389806283210178E-01
     2.756145059601090        0.3327722702518086E-01
     2.762851008651215        0.3266333024440089E-01
     2.769556957701339        0.3205626420555505E-01
     2.776262906751463        0.3145592188097276E-01
     2.782968855801588        0.3086219748603800E-01
     2.789674804851712        0.3027498646577243E-01
     2.796380753901836        0.2969418548125246E-01
     2.803086702951961        0.2911969239602459E-01
     2.809792652002085        0.2855140626249271E-01
     2.816498601052209        0.2798922730821883E-01
     2.823204550102334        0.2743305692228256E-01
     2.829910499152458        0.2688279764145712E-01
     2.836616448202582        0.2633835313639382E-01
     2.843322397252706        0.2579962819777519E-01
     2.850028346302831        0.2526652872239784E-01
     2.856734295352955        0.2473896169930847E-01
     2.863440244403079        0.2421683519579878E-01
     2.870146193453204        0.2370005834341771E-01
     2.876852142503328        0.2318854132397604E-01
     2.883558091553452        0.2268219535551724E-01
     2.890264040603577        0.2218093267833647E-01
     2.896969989653701        0.2168466654094083E-01
     2.903675938703825        0.2119331118602758E-01
     2.910381887753950        0.2070678183649586E-01
     2.917087836804074        0.2022499468146799E-01
     2.923793785854198        0.1974786686236033E-01
     2.930499734904322        0.1927531645897888E-01
     2.937205683954447        0.1880726247564099E-01
     2.943911633004571        0.1834362482736920E-01
     2.950617582054695        0.1788432432613504E-01
     2.957323531104820        0.1742928266716583E-01
     2.964029480154944        0.1697842241533371E-01
     2.970735429205068        0.1653166699159287E-01
     2.977441378255193        0.1608894065951558E-01
     2.984147327305317        0.1565016851191037E-01
     2.990853276355441        0.1521527645752639E-01
     2.997559225405566        0.1478419120786254E-01
     3.004265174455690        0.1435684026406019E-01
     3.010971123505814        0.1393315190390754E-01
     3.017677072555939        0.1351305516894748E-01
     3.024383021606063        0.1309647985169244E-01
     3.031088970656187        0.1268335648301793E-01
     3.037794919706311        0.1227361633213680E-01
     3.044500868756435        0.1186719172072124E-01
     3.051206817806560        0.1146401840152022E-01
     3.057912766856684        0.1106404297699933E-01
     3.064618715906809        0.1066723569899874E-01
     3.071324664956933        0.1027360510456535E-01
     3.078030614007057        0.9883210207674348E-02
     3.084736563057182        0.9496167764328139E-02
     3.091442512107306        0.9112654170952618E-02
     3.098148461157430        0.8732902804132933E-02
     3.104854410207555        0.8357198071101421E-02
     3.111560359257679        0.7985867426664404E-02
     3.118266308307803        0.7619272392123236E-02
     3.124972257357927        0.7257799343163609E-02
     3.131678206408052        0.6901850589824115E-02
     3.138384155458176        0.6551836077054647E-02
     3.145090104508300        0.6208165890427353E-02
     3.151796053558424        0.5871243650652220E-02
     3.158502002608549        0.5541460813025578E-02
     3.165207951658673        0.5219191844855983E-02
     3.171913900708797        0.4904790228101245E-02
     3.178619849758922        0.4598585220438484E-02
     3.185325798809046        0.4300879301799796E-02
     3.192031747859170        0.4011946232255949E-02
     3.198737696909295        0.3732029649058111E-02
     3.205443645959419        0.3461342134311402E-02
     3.212149595009544        0.3200064689277515E-02
     3.218855544059668        0.2948346556046145E-02
     3.225561493109792        0.2706305331842921E-02
     3.232267442159916        0.2474027325244192E-02
     3.238973391210040        0.2251568106706646E-02
     3.245679340260165        0.2038953207765097E-02
     3.252385289310289        0.1836178923509234E-02
     3.259091238360413        0.1643213170738145E-02
     3.265797187410538        0.1459996348181007E-02
     3.272503136460662        0.1286442133026357E-02
     3.279209085510786        0.1122438125295237E-02
     3.285915034560911        0.9678462098341822E-03
     3.292620983611035        0.8225024274331761E-03
     3.299326932661159        0.6862159938277995E-03
     3.306032881711284        0.5587667889406528E-03
     3.312738830761408        0.4398999284552738E-03
     3.319444779811532        0.3293142544440662E-03
     3.326150728861657        0.2266364342439769E-03
     3.332856677911781        0.1313543653755659E-03
     3.339562626961905        0.4258014710549597E-04
     3.346268576012029         0.000000000000000    
  0  4  1  0  2.000000   #orbital l, n, z, is_polarized, population
 500    0.1800891348949962E-01     8.986447831260309     # npts, delta, cutoff
     0.000000000000000        0.1919039998314983    
    0.1800891348949962E-01    0.1922164004795222    
    0.3601782697899923E-01    0.1931604914658213    
    0.5402674046849885E-01    0.1947250177842605    
    0.7203565395799846E-01    0.1968966323787491    
    0.9004456744749809E-01    0.1996568343691516    
    0.1080534809369977        0.2029821491054357    
    0.1260623944264973        0.2068443544456321    
    0.1440713079159969        0.2112107493686550    
    0.1620802214054965        0.2160444608710651    