<preamble>

<basis_specs>
===============================================================================
Cd                   Z=  48    Mass=  112.41        Charge= 0.17977+309
Lmxo=2 Lmxkb= 2    BasisType=split      Semic=T
L=0  Nsemic=1  Cnfigmx=5
          i=1  nzeta=1  polorb=0  (4s)  (semicore shell)
            splnorm:   0.15000    
               vcte:    40.000    
               rinn:    2.2490    
               qcoe:    0.0000    
               qyuk:    0.0000    
               qwid:   0.10000E-01
                rcs:    2.4964    
            lambdas:    1.0000    
          i=2  nzeta=2  polorb=0  (5s)  (to be polarized non-perturbatively)
            splnorm:   0.15000    
               vcte:    40.000    
               rinn:    6.3284    
               qcoe:    0.0000    
               qyuk:    0.0000    
               qwid:   0.10000E-01
                rcs:    7.0245      4.9870    
            lambdas:    1.0000      1.0000    
L=1  Nsemic=1  Cnfigmx=5
          i=1  nzeta=1  polorb=0  (4p)  (semicore shell)
            splnorm:   0.15000    
               vcte:    40.000    
               rinn:    2.5318    
               qcoe:    0.0000    
               qyuk:    0.0000    
               qwid:   0.10000E-01
                rcs:    2.8103    
            lambdas:    1.0000    
          i=2  nzeta=1  polorb=0  (5p)  (non-perturbative polarization shell)
            splnorm:   0.15000    
               vcte:    40.000    
               rinn:    6.3284    
               qcoe:    0.0000    
               qyuk:    0.0000    
               qwid:   0.10000E-01
                rcs:    7.0245    
            lambdas:    1.0000    
L=2  Nsemic=0  Cnfigmx=4
          i=1  nzeta=2  polorb=0  (4d)
            splnorm:   0.15000    
               vcte:    40.000    
               rinn:    3.8118    
               qcoe:    0.0000    
               qyuk:    0.0000    
               qwid:   0.10000E-01
                rcs:    4.2311      2.6460    
            lambdas:    1.0000      1.0000    
-------------------------------------------------------------------------------
L=0  Nkbl=2  erefs: 0.17977+309 0.17977+309
L=1  Nkbl=2  erefs: 0.17977+309 0.17977+309
L=2  Nkbl=1  erefs: 0.17977+309
===============================================================================
</basis_specs>

<pseudopotential_header>
 Cd pb nrl pcec
 ONCVPSP-3.2017-10-31Hamann's oncvpsp                        
 4s 2.00  r= 1.26/4p 6.00  r= 1.30/4d10.00  r= 1.35/                    4s:4p:4d:5s:
</pseudopotential_header>
</preamble>
Cd                            # Symbol
Cd                            # Label
   48                         # Atomic number
     20.0000000000                             # Valence charge
     112.410000000        # Mass 
     503.688301053        # Self energy 
   2   7                      # Lmax for basis, no. of nl orbitals 
   2   6                      # Lmax for projectors, no. of nl KB projectors
# PAOs:__________________________
  0  4  1  0  2.000000   #orbital l, n, z, is_polarized, population
 500    0.5002716975635044E-02     2.496355770841887     # npts, delta, cutoff
     0.000000000000000        0.5070792598582602    
    0.5002716975635044E-02    0.5072698530398901    
    0.1000543395127009E-01    0.5078920498017740    
    0.1500815092690513E-01    0.5089285490001858    
    0.2001086790254018E-01    0.5103785658146394    
    0.2501358487817522E-01    0.5122410126007189    
    0.3001630185381026E-01    0.5145144942240449    
    0.3501901882944531E-01    0.5171973084957697    
    0.4002173580508035E-01    0.5202874474844418    
    0.4502445278071539E-01    0.5237825992333728    
    0.5002716975635044E-01    0.5276801497878162    
    0.5502988673198549E-01    0.5319771855042416    
    0.6003260370762053E-01    0.5366704956307958    
    0.6503532068325557E-01    0.5417565751530187    
    0.7003803765889062E-01    0.5472316279004779    
    0.7504075463452566E-01    0.5530915699104849    
    0.8004347161016070E-01    0.5593320330451240    
    0.8504618858579575E-01    0.5659483688577066    
    0.9004890556143079E-01    0.5729356527046001    
    0.9505162253706584E-01    0.5802886880981731    
    0.1000543395127009        0.5880020112963631    
    0.1050570564883359        0.5960698961241663    
    0.1100597734639710        0.6044863590220917    
    0.1150624904396060        0.6132451643164307    
    0.1200652074152411        0.6223398297059469    
    0.1250679243908761        0.6317636319593743    
    0.1300706413665111        0.6415096128179235    
    0.1350733583421462        0.6515705850967510    
    0.1400760753177812        0.6619391389791831    
    0.1450787922934163        0.6726076484972693    
    0.1500815092690513        0.6835682781920601    
    0.1550842262446864        0.6948129899468168    
    0.1600869432203214        0.7063335499862015    
    0.1650896601959564        0.7181215360343103    
    0.1700923771715915        0.7301683446242737    
    0.1750950941472265        0.7424651985519753    
    0.1800978111228616        0.7550031544663179    
    0.1851005280984966        0.7677731105883161    
    0.1901032450741317        0.7807658145511718    
    0.1951059620497667        0.7939718713533788    
    0.2001086790254017        0.8073817514167834    
    0.2051113960010368        0.8209857987414149    
    0.2101141129766718        0.8347742391488572    
    0.2151168299523069        0.8487371886057845    
    0.2201195469279419        0.8628646616192457    
    0.2251222639035770        0.8771465796952458    
    0.2301249808792120        0.8915727798520411    
    0.2351276978548471        0.9061330231796041    
    0.2401304148304821        0.9208170034366242    
    0.2451331318061171        0.9356143556763962    
    0.2501358487817522        0.9505146648929473    
    0.2551385657573872        0.9655074746787377    
    0.2601412827330223        0.9805822958852769    
    0.2651439997086573        0.9957286152779875    
    0.2701467166842924         1.010935904176727    
    0.2751494336599274         1.026193627073361    
    0.2801521506355625         1.041491250217828    
    0.2851548676111975         1.056818250164244    
    0.2901575845868326         1.072164122268585    
    0.2951603015624676         1.087518389129599    
    0.3001630185381026         1.102870608964686    
    0.3051657355137377         1.118210383912578    
    0.3101684524893727         1.133527368254709    
    0.3151711694650078         1.148811276547347    
    0.3201738864406428         1.164051891656612    
    0.3251766034162779         1.179239072688721    
    0.3301793203919129         1.194362762807822    
    0.3351820373675479         1.209412996934041    
    0.3401847543431830         1.224379909314465    
    0.3451874713188181         1.239253740959956    
    0.3501901882944531         1.254024846940867    
    0.3551929052700881         1.268683703534932    
    0.3601956222457232         1.283220915220773    
    0.3651983392213582         1.297627221510659    
    0.3702010561969933         1.311893503616380    
    0.3752037731726283         1.326010790942297    
    0.3802064901482634         1.339970267399871    
    0.3852092071238984         1.353763277538138    
    0.3902119240995334         1.367381332484918    
    0.3952146410751685         1.380816115693725    
    0.4002173580508035         1.394059488491601    
    0.4052200750264386         1.407103495423363    
    0.4102227920020736         1.419940369387964    
    0.4152255089777087         1.432562536563023    
    0.4202282259533437         1.444962621113714    
    0.4252309429289787         1.457133449682562    
    0.4302336599046138         1.469068055656954    
    0.4352363768802489         1.480759683211462    
    0.4402390938558839         1.492201791122198    
    0.4452418108315189         1.503388056351024    
    0.4502445278071540         1.514312377397363    
    0.4552472447827890         1.524968877415895    
    0.4602499617584240         1.535351907098555    
    0.4652526787340591         1.545456047319692    
    0.4702553957096942         1.555276111543321    
    0.4752581126853292         1.564807147991890    
    0.4802608296609642         1.574044441576175    
    0.4852635466365993         1.582983515586184    
    0.4902662636122343         1.591620133143255    
    0.4952689805878693         1.599950298413891    
    0.5002716975635044         1.607970257585993    
    0.5052744145391395         1.615676499608623    
    0.5102771315147745         1.623065756696492    
    0.5152798484904095         1.630135004600856    
    0.5202825654660446         1.636881462648625    
    0.5252852824416796         1.643302593551773    
    0.5302879994173146         1.649396102989465    
    0.5352907163929497         1.655159938965494    
    0.5402934333685847         1.660592290943933    
    0.5452961503442199         1.665691588766095    
    0.5502988673198549         1.670456501352167    
    0.5553015842954899         1.674885935191120    
    0.5603043012711250         1.678979032622721    
    0.5653070182467600         1.682735169915651    
    0.5703097352223950         1.686153955145980    
    0.5753124521980301         1.689235225880500    
    0.5803151691736651         1.691979046669521    
    0.5853178861493001         1.694385706353958    
    0.5903206031249352         1.696455715191788    
    0.5953233201005702         1.698189801808983    
    0.6003260370762052         1.699588909980362    
    0.6053287540518403         1.700654195245813    
    0.6103314710274754         1.701387021367557    
    0.6153341880031105         1.701788956634274    
    0.6203369049787455         1.701861770017952    
    0.6253396219543805         1.701607427189554    
    0.6303423389300156         1.701028086399618    
    0.6353450559056506         1.700126094230058    
    0.6403477728812856         1.698903981223474    
    0.6453504898569207         1.697364457396395    
    0.6503532068325557         1.695510407642931    
    0.6553559238081907         1.693344887035415    
    0.6603586407838258         1.690871116028543    
    0.6653613577594608         1.688092475573716    
    0.6703640747350958         1.685012502150223    
    0.6753667917107310         1.681634882719909    
    0.6803695086863660         1.677963449612042    
    0.6853722256620011         1.674002175345095    
    0.6903749426376361         1.669755167392053    
    0.6953776596132711         1.665226662895960    
    0.7003803765889062         1.660421023342294    
    0.7053830935645412         1.655342729194784    
    0.7103858105401762         1.649996374501220    
    0.7153885275158113         1.644386661475649    
    0.7203912444914463         1.638518395473493    
    0.7253939614670813         1.632396478602600    
    0.7303966784427164         1.626025904633961    
    0.7353993954183514         1.619411754021914    
    0.7404021123939866         1.612559188167288    
    0.7454048293696216         1.605473443990399    
    0.7504075463452566         1.598159828523586    
    0.7554102633208917         1.590623713529079    
    0.7604129802965267         1.582870530147755    
    0.7654156972721617         1.574905763584286    
    0.7704184142477968         1.566734947833988    
    0.7754211312234318         1.558363660456581    
    0.7804238481990668         1.549797517401877    
    0.7854265651747019         1.541042167892289    
    0.7904292821503369         1.532103289366854    
    0.7954319991259720         1.522986582491340    
    0.8004347161016070         1.513697766238784    
    0.8054374330772421         1.504242573044706    
    0.8104401500528772         1.494626744040991    
    0.8154428670285122         1.484856024372277    
    0.8204455840041472         1.474936158598517    
    0.8254483009797823         1.464872886187198    
    0.8304510179554173         1.454671937098469    
    0.8354537349310523         1.444339027466284    
    0.8404564519066874         1.433879855378443    
    0.8454591688823224         1.423300096758260    
    0.8504618858579575         1.412605401350338    
    0.8554646028335925         1.401801388812782    
    0.8604673198092275         1.390893644917949    
    0.8654700367848627         1.379887717863710    
    0.8704727537604977         1.368789114696871    
    0.8754754707361327         1.357603297850404    
    0.8804781877117678         1.346335681795703    
    0.8854809046874028         1.334991629811183    
    0.8904836216630378         1.323576450867996    
    0.8954863386386729         1.312095396633889    
    0.9004890556143079         1.300553658595534    
    0.9054917725899430         1.288956365300057    
    0.9104944895655780         1.277308579715693    
    0.9154972065412130         1.265615296711955    
    0.9204999235168481         1.253881440658939    
    0.9255026404924831         1.242111863145749    
    0.9305053574681182         1.230311340817416    
    0.9355080744437533         1.218484573329877    
    0.9405107914193883         1.206636181422246    
    0.9455135083950233         1.194770705105407    
    0.9505162253706584         1.182892601966118    
    0.9555189423462934         1.171006245585149    
    0.9605216593219285         1.159115924068594    
    0.9655243762975635         1.147225838690444    
    0.9705270932731985         1.135340102645377    
    0.9755298102488336         1.123462739909713    
    0.9805325272244686         1.111597684209005    
    0.9855352442001036         1.099748778090399    
    0.9905379611757387         1.087919772097560    
    0.9955406781513738         1.076114324046578    
     1.000543395127009         1.064335998400103    
     1.005546112102644         1.052588265738140    
     1.010548829078279         1.040874502322704    
     1.015551546053914         1.029197989754239    
     1.020554263029549         1.017561914717440    
     1.025556980005184         1.005969368813628    
     1.030559696980819        0.9944233484778213    
     1.035562413956454        0.9829267549772460    
     1.040565130932089        0.9714823944891998    
     1.045567847907724        0.9600929782554583    
     1.050570564883359        0.9487611228104176    
     1.055573281858994        0.9374893502808080    
     1.060575998834629        0.9262800887536987    
     1.065578715810264        0.9151356727105903    
     1.070581432785899        0.9040583435247126    
     1.075584149761534        0.8930502500187403    
     1.080586866737169        0.8821134490806740    
     1.085589583712804        0.8712499063347523    
     1.090592300688440        0.8604614968651215    
     1.095595017664075        0.8497500059895781    
     1.100597734639710        0.8391171300806561    
     1.105600451615345        0.8285644774318260    
     1.110603168590980        0.8180935691660230    
     1.115605885566615        0.8077058401842147    
     1.120608602542250        0.7974026401516439    
     1.125611319517885        0.7871852345192508    
     1.130614036493520        0.7770548055781005    
     1.135616753469155        0.7670124535445337    
     1.140619470444790        0.7570591976738559    
     1.145622187420425        0.7471959774004635    
     1.150624904396060        0.7374236535023925    
     1.155627621371695        0.7277430092882681    
     1.160630338347330        0.7181547518047326    
     1.165633055322965        0.7086595130626439    
     1.170635772298600        0.6992578512801070    
     1.175638489274235        0.6899502521407249    
     1.180641206249870        0.6807371300656448    
     1.185643923225505        0.6716188294975102    
     1.190646640201140        0.6625956261951341    
     1.195649357176775        0.6536677285376707    
     1.200652074152410        0.6448352788364557    
     1.205654791128046        0.6360983546538699    
     1.210657508103681        0.6274569701280039    
     1.215660225079316        0.6189110772994154    
     1.220662942054951        0.6104605673371692    
     1.225665659030586        0.6021052719097578    
     1.230668376006221        0.5938449648940799    
     1.235671092981856        0.5856793641808299    
     1.240673809957491        0.5776081323964721    
     1.245676526933126        0.5696308764155440    
     1.250679243908761        0.5617471479118321    
     1.255681960884396        0.5539564468291251    
     1.260684677860031        0.5462582281590950    
     1.265687394835666        0.5386519093354328    
     1.270690111811301        0.5311368784961882    
     1.275692828786936        0.5237125027665643    
     1.280695545762571        0.5163781357165445    
     1.285698262738206        0.5091331211607671    
     1.290700979713841        0.5019767928752553    
     1.295703696689476        0.4949084734129330    
     1.300706413665111        0.4879274736124938    
     1.305709130640746        0.4810330940337237    
     1.310711847616381        0.4742246260807756    
     1.315714564592017        0.4675013529892576    
     1.320717281567652        0.4608625503859539    
     1.325719998543287        0.4543074869069921    
     1.330722715518922        0.4478354249649126    
     1.335725432494557        0.4414456212390053    
     1.340728149470192        0.4351373273425133    
     1.345730866445827        0.4289097903348449    
     1.350733583421462        0.4227622533398857    
     1.355736300397097        0.4166939560526802    
     1.360739017372732        0.4107041352526123    
     1.365741734348367        0.4047920252841649    
     1.370744451324002        0.3989568585327919    
     1.375747168299637        0.3931978658516593    
     1.380749885275272        0.3875142769929347    
     1.385752602250907        0.3819053210291903    
     1.390755319226542        0.3763702267372753    
     1.395758036202177        0.3709082229696327    
     1.400760753177812        0.3655185390093250    
     1.405763470153447        0.3602004049016016    
     1.410766187129082        0.3549530518077607    
     1.415768904104717        0.3497757122874323    
     1.420771621080352        0.3446676206030971    
     1.425774338055988        0.3396280129929127    
     1.430777055031623        0.3346561279413350    
     1.435779772007258        0.3297512064365472    
     1.440782488982893        0.3249124922088054    
     1.445785205958528        0.3201392319628464    
     1.450787922934163        0.3154306755910098    
     1.455790639909798        0.3107860763810220    
     1.460793356885433        0.3062046912106189    
     1.465796073861068        0.3016857807326215    
     1.470798790836703        0.2972286095493485    
     1.475801507812338        0.2928324463772276    
     1.480804224787973        0.2884965642021214    
     1.485806941763608        0.2842202404255414    
     1.490809658739243        0.2800027570022072    
     1.495812375714878        0.2758434005691781    
     1.500815092690513        0.2717414625669297    
     1.505817809666148        0.2676962393526507    
     1.510820526641783        0.2637070323060649    
     1.515823243617418        0.2597731479280037    
     1.520825960593053        0.2558938979321865    
     1.525828677568688        0.2520685993302929    
     1.530831394544323        0.2482965745105927    
     1.535834111519959        0.2445771513105074    
     1.540836828495594        0.2409096630832931    
     1.545839545471229        0.2372934487590498    
     1.550842262446864        0.2337278529001600    
     1.555844979422499        0.2302122257517323    
     1.560847696398134        0.2267459232869264    
     1.565850413373769        0.2233283072474877    
     1.570853130349404        0.2199587451795739    
     1.575855847325039        0.2166366104653987    
     1.580858564300674        0.2133612823505012    
     1.585861281276309        0.2101321459669268    
     1.590863998251944        0.2069485923525680    
     1.595866715227579        0.2038100184668848    
     1.600869432203214        0.2007158272030095    
     1.605872149178849        0.1976654273963143    
     1.610874866154484        0.1946582338299341    
     1.615877583130119        0.1916936672371228    
     1.620880300105754        0.1887711543006567    
     1.625883017081389        0.1858901276492246    
     1.630885734057024        0.1830500258513933    
     1.635888451032659        0.1802502934068586    
     1.640891168008294        0.1774903807352791    
     1.645893884983930        0.1747697441625954    
     1.650896601959565        0.1720878459054067    
     1.655899318935200        0.1694441540530614    
     1.660902035910835        0.1668381425477797    
     1.665904752886470        0.1642692911627167    
     1.670907469862105        0.1617370854784524    
     1.675910186837740        0.1592410168576094    
     1.680912903813375        0.1567805824178727    
     1.685915620789010        0.1543552850033458    
     1.690918337764645        0.1519646331546482    
     1.695921054740280        0.1496081410774952    
     1.700923771715915        0.1472853286100124    
     1.705926488691550        0.1449957211887132    
     1.710929205667185        0.1427388498134885    
     1.715931922642820        0.1405142510113937    
     1.720934639618455        0.1383214667994405    
     1.725937356594090        0.1361600446463582    
     1.730940073569725        0.1340295374335672    
     1.735942790545360        0.1319295034152367    
     1.740945507520995        0.1298595061775787    
     1.745948224496630        0.1278191145973749    
     1.750950941472265        0.1258079027998758    
     1.755953658447901        0.1238254501160417    
     1.760956375423536        0.1218713410392084    
     1.765959092399171        0.1199451651812120    
     1.770961809374806        0.1180465172280332    
     1.775964526350441        0.1161749968949848    
     1.780967243326076        0.1143302088814945    
     1.785969960301711        0.1125117628255328    
     1.790972677277346        0.1107192732576971    
     1.795975394252981        0.1089523595549976    
     1.800978111228616        0.1072106458943934    
     1.805980828204251        0.1054937612060973    
     1.810983545179886        0.1038013391267158    
     1.815986262155521        0.1021330179521661    
     1.820988979131156        0.1004884405904985    
     1.825991696106791        0.9886725451458957E-01
     1.830994413082426        0.9726911171481371E-01
     1.835997130058061        0.9569366865156992E-01
     1.840999847033696        0.9414058620782688E-01
     1.846002564009331        0.9260952964164343E-01
     1.851005280984966        0.9110016853873844E-01
     1.856007997960601        0.8961217676506067E-01
     1.861010714936236        0.8814523241940288E-01
     1.866013431911872        0.8669901778611415E-01
     1.871016148887507        0.8527321928788545E-01
     1.876018865863142        0.8386752743870275E-01
     1.881021582838777        0.8248163679682852E-01
     1.886024299814412        0.8111524591798815E-01
     1.891027016790047        0.7976805730868849E-01
     1.896029733765682        0.7843977737974273E-01
     1.901032450741317        0.7713011639993539E-01
     1.906035167716952        0.7583878844989234E-01
     1.911037884692587        0.7456551137616735E-01
     1.916040601668222        0.7331000674554075E-01
     1.921043318643857        0.7207199979957471E-01
     1.926046035619492        0.7085121940935875E-01
     1.931048752595127        0.6964739803053775E-01
     1.936051469570762        0.6846027165858715E-01
     1.941054186546397        0.6728957978436212E-01
     1.946056903522032        0.6613506534991506E-01
     1.951059620497667        0.6499647470458891E-01
     1.956062337473302        0.6387355756140545E-01
     1.961065054448937        0.6276606695374749E-01
     1.966067771424572        0.6167375919233575E-01
     1.971070488400207        0.6059639382251783E-01
     1.976073205375842        0.5953373358186582E-01
     1.981075922351477        0.5848554435808745E-01
     1.986078639327113        0.5745159514725872E-01
     1.991081356302748        0.5643165801237041E-01
     1.996084073278383        0.5542550804222027E-01
     2.001086790254018        0.5443292331062358E-01
     2.006089507229653        0.5345368483596117E-01
     2.011092224205288        0.5248757654105305E-01
     2.016094941180923        0.5153438521337529E-01
     2.021097658156558        0.5059390046563054E-01
     2.026100375132193        0.4966591469664487E-01
     2.031103092107828        0.4875022305261972E-01
     2.036105809083463        0.4784662338870072E-01
     2.041108526059098        0.4695491623092549E-01
     2.046111243034733        0.4607490473850661E-01
     2.051113960010368        0.4520639466645725E-01
     2.056116676986003        0.4434919432857420E-01
     2.061119393961638        0.4350311456073658E-01
     2.066122110937273        0.4266796868459419E-01
     2.071124827912908        0.4184357247158178E-01
     2.076127544888543        0.4102974410728041E-01
     2.081130261864178        0.4022630415613156E-01
     2.086132978839813        0.3943307552646913E-01
     2.091135695815448        0.3864988343594028E-01
     2.096138412791083        0.3787655537724808E-01
     2.101141129766718        0.3711292108423866E-01
     2.106143846742353        0.3635881249841711E-01
     2.111146563717988        0.3561406373541706E-01
     2.116149280693624        0.3487851105236341E-01
     2.121151997669259        0.3415199281526139E-01
     2.126154714644894        0.3343434946675396E-01
     2.131157431620529        0.3272542349414243E-01
     2.136160148596164        0.3202505939816100E-01
     2.141162865571799        0.3133310366142888E-01
     2.146165582547434        0.3064940471751310E-01
     2.151168299523069        0.2997381292037771E-01
     2.156171016498704        0.2930618051296457E-01
     2.161173733474339        0.2864636160024948E-01
     2.166176450449974        0.2799421211749257E-01
     2.171179167425609        0.2734958980104090E-01
     2.176181884401244        0.2671235415965579E-01
     2.181184601376879        0.2608236644871799E-01
     2.186187318352514        0.2545948963507876E-01
     2.191190035328149        0.2484358837151317E-01
     2.196192752303785        0.2423452897195683E-01
     2.201195469279420        0.2363217938205758E-01
     2.206198186255055        0.2303640914933745E-01
     2.211200903230690        0.2244708939950277E-01
     2.216203620206325        0.2186409281834651E-01
     2.221206337181960        0.2128729361077856E-01
     2.226209054157595        0.2071656747992552E-01
     2.231211771133230        0.2015179160162629E-01
     2.236214488108865        0.1959284459924775E-01
     2.241217205084500        0.1903960651886845E-01
     2.246219922060135        0.1849195880415542E-01
     2.251222639035770        0.1794978427166314E-01
     2.256225356011405        0.1741296708642043E-01
     2.261228072987040        0.1688139273775582E-01
     2.266230789962675        0.1635494801686455E-01
     2.271233506938310        0.1583352108095366E-01
     2.276236223913945        0.1531700250149545E-01
     2.281238940889580        0.1480528997127464E-01
     2.286241657865215        0.1429829868001741E-01
     2.291244374840850        0.1379597544017511E-01
     2.296247091816485        0.1329831229643538E-01
     2.301249808792120        0.1280535624725515E-01
     2.306252525767755        0.1231721378695251E-01
     2.311255242743390        0.1183405058236733E-01
     2.316257959719025        0.1135608736798730E-01
     2.321260676694660        0.1088359330808416E-01
     2.326263393670295        0.1041687793137535E-01
     2.331266110645930        0.9956282494873223E-02
     2.336268827621566        0.9502171383053147E-02
     2.341271544597201        0.9054923938296586E-02
     2.346274261572836        0.8614926958246684E-02
     2.351276978548471        0.8182567980873868E-02
     2.356279695524106        0.7758229399716612E-02
     2.361282412499741        0.7342283400845597E-02
     2.366285129475376        0.6935087681745661E-02
     2.371287846451011        0.6536981894539429E-02
     2.376290563426646        0.6148284747279124E-02
     2.381293280402281        0.5769291694212175E-02
     2.386295997377916        0.5400273146776022E-02
     2.391298714353551        0.5041473140024256E-02
     2.396301431329186        0.4693108393210030E-02
     2.401304148304821        0.4355367707625196E-02
     2.406306865280456        0.4028411649030574E-02
     2.411309582256091        0.3712372465697092E-02
     2.416312299231726        0.3407354195938108E-02
     2.421315016207361        0.3113432920602306E-02
     2.426317733182996        0.2830657115878417E-02
     2.431320450158631        0.2559048059121966E-02
     2.436323167134267        0.2298600233997358E-02
     2.441325884109902        0.2049281668761221E-02
     2.446328601085537        0.1811034118971436E-02
     2.451331318061172        0.1583772965549573E-02
     2.456334035036807        0.1367386625727754E-02
     2.461336752012442        0.1161735135892453E-02
     2.466339468988077        0.9666472896329505E-03
     2.471342185963712        0.7819151250371676E-03
     2.476344902939347        0.6072831723625768E-03
     2.481347619914982        0.4424261927688679E-03
     2.486350336890617        0.2868974302323182E-03
     2.491353053866252        0.1399800426482806E-03
     2.496355770841887         0.000000000000000    
  0  5  1  0  2.000000   #orbital l, n, z, is_polarized, population
 500    0.1407719940810630E-01     7.024522504645041     # npts, delta, cutoff
     0.000000000000000        0.2177948849268168    
    0.1407719940810630E-01    0.2184399629919740    
    0.2815439881621259E-01    0.2203915901496576    