<preamble>

<basis_specs>
===============================================================================
Cs                   Z=  55    Mass=  132.91        Charge= 0.17977+309
Lmxo=1 Lmxkb= 2    BasisType=split      Semic=T
L=0  Nsemic=1  Cnfigmx=6
          i=1  nzeta=1  polorb=0  (5s)  (semicore shell)
            splnorm:   0.15000    
               vcte:    40.000    
               rinn:    3.9917    
               qcoe:    0.0000    
               qyuk:    0.0000    
               qwid:   0.10000E-01
                rcs:    4.4308    
            lambdas:    1.0000    
          i=2  nzeta=2  polorb=0  (6s)  (to be polarized non-perturbatively)
            splnorm:   0.15000    
               vcte:    40.000    
               rinn:    10.398    
               qcoe:    0.0000    
               qyuk:    0.0000    
               qwid:   0.10000E-01
                rcs:    11.542      8.8260    
            lambdas:    1.0000      1.0000    
L=1  Nsemic=1  Cnfigmx=6
          i=1  nzeta=1  polorb=0  (5p)  (semicore shell)
            splnorm:   0.15000    
               vcte:    40.000    
               rinn:    4.8337    
               qcoe:    0.0000    
               qyuk:    0.0000    
               qwid:   0.10000E-01
                rcs:    5.3708    
            lambdas:    1.0000    
          i=2  nzeta=1  polorb=0  (6p)  (non-perturbative polarization shell)
            splnorm:   0.15000    
               vcte:    40.000    
               rinn:    10.398    
               qcoe:    0.0000    
               qyuk:    0.0000    
               qwid:   0.10000E-01
                rcs:    11.542    
            lambdas:    1.0000    
-------------------------------------------------------------------------------
L=0  Nkbl=2  erefs: 0.17977+309 0.17977+309
L=1  Nkbl=2  erefs: 0.17977+309 0.17977+309
L=2  Nkbl=1  erefs: 0.17977+309
===============================================================================
</basis_specs>

<pseudopotential_header>
 Cs pb nrl pcec
 ONCVPSP-3.2017-10-31Hamann's oncvpsp                        
 5s 2.00  r= 2.27/5p 6.00  r= 1.86/5d 0.00  r= 2.02/4f 0.00  r= 1.90/   5s:5p:6s:
</pseudopotential_header>
</preamble>
Cs                            # Symbol
Cs                            # Label
   55                         # Atomic number
     9.00000000000                             # Valence charge
     132.910000000        # Mass 
     69.9069614679        # Self energy 
   1   5                      # Lmax for basis, no. of nl orbitals 
   2   6                      # Lmax for projectors, no. of nl KB projectors
# PAOs:__________________________
  0  5  1  0  2.000000   #orbital l, n, z, is_polarized, population
 500    0.8879316655576820E-02     4.430779011132834     # npts, delta, cutoff
     0.000000000000000        0.1345739334729234    
    0.8879316655576820E-02    0.1346405602187759    
    0.1775863331115364E-01    0.1348464426168618    
    0.2663794996673046E-01    0.1351894373155142    
    0.3551726662230728E-01    0.1356693276545792    
    0.4439658327788410E-01    0.1362858112426848    
    0.5327589993346092E-01    0.1370384998287559    
    0.6215521658903774E-01    0.1379269195693559    
    0.7103453324461456E-01    0.1389505114072789    
    0.7991384990019137E-01    0.1401086315293542    
    0.8879316655576820E-01    0.1414005518965946    
    0.9767248321134503E-01    0.1428254608443391    
    0.1065517998669218        0.1443824637511065    
    0.1154311165224987        0.1460705837751512    
    0.1243104331780755        0.1478887626577650    
    0.1331897498336523        0.1498358615923429    
    0.1420690664892291        0.1519106621581811    
    0.1509483831448059        0.1541118673179145    
    0.1598276998003827        0.1564381024774395    
    0.1687070164559596        0.1588879166070998    
    0.1775863331115364        0.1614597834228554    
    0.1864656497671132        0.1641521026260864    
    0.1953449664226901        0.1669632012006303    
    0.2042242830782669        0.1698913347655863    
    0.2131035997338437        0.1729346889823707    
    0.2219829163894205        0.1760913810144491    
    0.2308622330449973        0.1793594610381200    
    0.2397415497005742        0.1827369138026790    
    0.2486208663561510        0.1862216602382418    
    0.2575001830117278        0.1898115591094601    
    0.2663794996673046        0.1935044087133272    
    0.2752588163228814        0.1972979486192263    
    0.2841381329784582        0.2011898614493378    
    0.2930174496340351        0.2051777746974948    
    0.3018967662896119        0.2092592625845333    
    0.3107760829451887        0.2134318479481688    
    0.3196553996007655        0.2176930041653946    
    0.3285347162563423        0.2220401571053802    
    0.3374140329119192        0.2264706871108273    
    0.3462933495674960        0.2309819310057227    
    0.3551726662230728        0.2355711841274161    
    0.3640519828786496        0.2402357023809372    
    0.3729312995342264        0.2449727043134626    
    0.3818106161898033        0.2497793732068277    
    0.3906899328453801        0.2546528591859908    
    0.3995692495009569        0.2595902813413489    
    0.4084485661565337        0.2645887298628047    
    0.4173278828121105        0.2696452681834977    
    0.4262071994676874        0.2747569351311202    
    0.4350865161232642        0.2799207470847470    
    0.4439658327788410        0.2851337001351235    
    0.4528451494344178        0.2903927722463762    
    0.4617244660899946        0.2956949254171241    
    0.4706037827455715        0.3010371078390019    
    0.4794830994011483        0.3064162560506150    
    0.4883624160567251        0.3118292970849849    
    0.4972417327123019        0.3172731506085752    
    0.5061210493678787        0.3227447310500019    
    0.5150003660234556        0.3282409497165903    
    0.5238796826790324        0.3337587168969580    
    0.5327589993346092        0.3392949439478386    
    0.5416383159901861        0.3448465453634293    
    0.5505176326457628        0.3504104408255384    
    0.5593969493013397        0.3559835572329061    
    0.5682762659569165        0.3615628307080652    
    0.5771555826124933        0.3671452085801961    
    0.5860348992680702        0.3727276513424510    
    0.5949142159236469        0.3783071345822792    
    0.6037935325792237        0.3838806508833436    
    0.6126728492348006        0.3894452116976522    
    0.6215521658903774        0.3949978491865956    
    0.6304314825459543        0.4005356180296268    
    0.6393107992015310        0.4060555971993721    
    0.6481901158571078        0.4115548917020241    
    0.6570694325126847        0.4170306342819073    
    0.6659487491682615        0.4224799870891841    
    0.6748280658238384        0.4279001433096973    
    0.6837073824794152        0.4332883287560296    
    0.6925866991349919        0.4386418034188883    
    0.7014660157905688        0.4439578629780070    
    0.7103453324461456        0.4492338402717860    
    0.7192246491017225        0.4544671067249695    
    0.7281039657572993        0.4596550737336944    
    0.7369832824128760        0.4647951940073306    
    0.7458625990684529        0.4698849628665362    
    0.7547419157240297        0.4749219194970729    
    0.7636212323796066        0.4799036481589106    
    0.7725005490351834        0.4848277793502627    
    0.7813798656907602        0.4896919909262050    
    0.7902591823463370        0.4944940091716002    
    0.7991384990019138        0.4992316098280979    
    0.8080178156574906        0.5039026190750370    
    0.8168971323130675        0.5085049144641024    
    0.8257764489686443        0.5130364258076666    
    0.8346557656242211        0.5174951360207657    
    0.8435350822797979        0.5218790819167269    
    0.8524143989353747        0.5261863549564904    
    0.8612937155909516        0.5304151019517193    
    0.8701730322465284        0.5345635257218405    
    0.8790523489021052        0.5386298857051768    
    0.8879316655576820        0.5426124985243990    
    0.8968109822132588        0.5465097385065320    
    0.9056902988688357        0.5503200381578203    
    0.9145696155244125        0.5540418885937562    
    0.9234489321799892        0.5576738399246289    
    0.9323282488355661        0.5612145015969885    
    0.9412075654911429        0.5646625426914232    
    0.9500868821467198        0.5680166921771086    
    0.9589661988022966        0.5712757391235911    
    0.9678455154578735        0.5744385328702970    
    0.9767248321134502        0.5775039831542970    
    0.9856041487690270        0.5804710601968603    
    0.9944834654246039        0.5833387947493620    
     1.003362782080181        0.5861062780991325    
     1.012242098735757        0.5887726620358420    
     1.021121415391334        0.5913371587790374    
     1.030000732046911        0.5937990408674744    
     1.038880048702488        0.5961576410108854    
     1.047759365358065        0.5984123519048371    
     1.056638682013642        0.6005626260093626    
     1.065517998669218        0.6026079752920397    
     1.074397315324795        0.6045479709362083    
     1.083276631980372        0.6063822430150319    
     1.092155948635949        0.6081104801321002    
     1.101035265291526        0.6097324290292934    
     1.109914581947103        0.6112478941626146    
     1.118793898602679        0.6126567372467241    
     1.127673215258256        0.6139588767688872    
     1.136552531913833        0.6151542874730631    
     1.145431848569410        0.6162429998148604    
     1.154311165224987        0.6172250993881077    
     1.163190481880563        0.6181007263237268    
     1.172069798536140        0.6188700746616637    
     1.180949115191717        0.6195333916966059    
     1.189828431847294        0.6200909772981825    
     1.198707748502871        0.6205431832063859    
     1.207587065158447        0.6208904123029330    
     1.216466381814024        0.6211331178592731    
     1.225345698469601        0.6212718027619528    
     1.234225015125178        0.6213070187160463    
     1.243104331780755        0.6212393654273588    
     1.251983648436332        0.6210694897640912    
     1.260862965091909        0.6207980848986548    
     1.269742281747485        0.6204258894303463    
     1.278621598403062        0.6199536864895362    
     1.287500915058639        0.6193823028240721    
     1.296380231714216        0.6187126078685665    
     1.305259548369793        0.6179455127972280    
     1.314138865025369        0.6170819695609087    
     1.323018181680946        0.6161229699090188    
     1.331897498336523        0.6150695443969983    
     1.340776814992100        0.6139227613799337    
     1.349656131647677        0.6126837259930180    
     1.358535448303253        0.6113535791194816    
     1.367414764958830        0.6099334963466325    
     1.376294081614407        0.6084246869106524    
     1.385173398269984        0.6068283926307626    
     1.394052714925561        0.6051458868334080    
     1.402932031581138        0.6033784732670737    
     1.411811348236715        0.6015274850216024    
     1.420690664892291        0.5995943012754023    
     1.429569981547868        0.5975803001316327    
     1.438449298203445        0.5954868881151349    
     1.447328614859022        0.5933155045246934    
     1.456207931514599        0.5910676124085104    
     1.465087248170175        0.5887446974309912    
     1.473966564825752        0.5863482667351615    
     1.482845881481329        0.5838798478013253    
     1.491725198136906        0.5813409873025865    
     1.500604514792483        0.5787332499578601    
     1.509483831448059        0.5760582173830183    
     1.518363148103636        0.5733174869407696    
     1.527242464759213        0.5705126705899172    
     1.536121781414790        0.5676453937346083    
     1.545001098070367        0.5647172940742430    
     1.553880414725944        0.5617300204546221    
     1.562759731381520        0.5586852317210500    
     1.571639048037097        0.5555845955739293    
     1.580518364692674        0.5524297874276136    
     1.589397681348251        0.5492224892729978    
     1.598276998003828        0.5459643885447221    
     1.607156314659405        0.5426571769933717    
     1.616035631314981        0.5393025495635884    
     1.624914947970558        0.5359022032784668    
     1.633794264626135        0.5324578361311958    
     1.642673581281712        0.5289711459843288    
     1.651552897937289        0.5254438294775420    
     1.660432214592865        0.5218775809444099    
     1.669311531248442        0.5182740913389090    
     1.678190847904019        0.5146350471723607    
     1.687070164559596        0.5109621294613039    
     1.695949481215173        0.5072570126872618    
     1.704828797870749        0.5035213637686464    
     1.713708114526326        0.4997568410459269    
     1.722587431181903        0.4959650932802582    
     1.731466747837480        0.4921477586666069    
     1.740346064493057        0.4883064638617994    
     1.749225381148634        0.4844428230281695    
     1.758104697804210        0.4805584368936089    
     1.766984014459787        0.4766548918283020    
     1.775863331115364        0.4727337589391824    
     1.784742647770941        0.4687965931821330    
     1.793621964426518        0.4648449324950422    
     1.802501281082094        0.4608802969471105    
     1.811380597737671        0.4569041879049736    
     1.820259914393248        0.4529180872382277    
     1.829139231048825        0.4489234565133227    
     1.838018547704402        0.4449217362280407    
     1.846897864359978        0.4409143450863721    
     1.855777181015555        0.4369026792868025    
     1.864656497671132        0.4328881117706099    
     1.873535814326709        0.4288719916192164    
     1.882415130982286        0.4248556433891875    
     1.891294447637863        0.4208403664483601    
     1.900173764293440        0.4168274343538266    
     1.909053080949016        0.4128180943537821    
     1.917932397604593        0.4088135668157810    
     1.926811714260170        0.4048150446784486    
     1.935691030915747        0.4008236929762364    
     1.944570347571324        0.3968406484166747    
     1.953449664226900        0.3928670188926407    
     1.962328980882477        0.3889038830590881    
     1.971208297538054        0.3849522899752531    
     1.980087614193631        0.3810132587503330    
     1.988966930849208        0.3770877782240325    
     1.997846247504784        0.3731768066580242    
     2.006725564160361        0.3692812714733871    
     2.015604880815938        0.3654020690133291    
     2.024484197471515        0.3615400643356962    
     2.033363514127092        0.3576960910341348    
     2.042242830782669        0.3538709510890296    
     2.051122147438246        0.3500654147482823    
     2.060001464093822        0.3462802204379338    
     2.068880780749399        0.3425160747021687    
     2.077760097404976        0.3387736521731023    
     2.086639414060553        0.3350535955701421    
     2.095518730716130        0.3313565157285949    
     2.104398047371706        0.3276829916577428    
     2.113277364027283        0.3240335706279864    
     2.122156680682860        0.3204087682868016    
     2.131035997338437        0.3168090688035635    
     2.139915313994014        0.3132349250426453    
     2.148794630649590        0.3096867587646063    
     2.157673947305167        0.3061649608553493    
     2.166553263960744        0.3026698915825276    
     2.175432580616321        0.2992018808790644    
     2.184311897271898        0.2957612286534810    
     2.193191213927475        0.2923482051258983    
     2.202070530583051        0.2889630511669576    
     2.210949847238628        0.2856059786356239    
     2.219829163894205        0.2822771709469391    
     2.228708480549782        0.2789767836698553    
     2.237587797205359        0.2757049451040225    
     2.246467113860935        0.2724617559044629    
     2.255346430516513        0.2692472890255351    
     2.264225747172089        0.2660615903214733    
     2.273105063827666        0.2629046812590987    
     2.281984380483243        0.2597765622344134    
     2.290863697138819        0.2566772161097878    
     2.299743013794397        0.2536066118679614    
     2.308622330449973        0.2505647078621747    
     2.317501647105550        0.2475514546299575    
     2.326380963761127        0.2445667954432577    
     2.335260280416704        0.2416106661454429    
     2.344139597072281        0.2386829945407211    
     2.353018913727857        0.2357837006666471    
     2.361898230383434        0.2329126973099052    
     2.370777547039011        0.2300698904773109    
     2.379656863694588        0.2272551797208244    
     2.388536180350165        0.2244684583677910    
     2.397415497005742        0.2217096137975068    
     2.406294813661318        0.2189785277112121    
     2.415174130316895        0.2162750763952028    
     2.424053446972472        0.2135991309746786    
     2.432932763628049        0.2109505576596100    
     2.441812080283626        0.2083292179827438    
     2.450691396939202        0.2057349690300430    
     2.459570713594779        0.2031676636635680    
     2.468450030250356        0.2006271507373486    
     2.477329346905933        0.1981132753061543    
     2.486208663561510        0.1956258788273885    
     2.495087980217086        0.1931647993564675    
     2.503967296872663        0.1907298717357640    
     2.512846613528240        0.1883209277772490    
     2.521725930183817        0.1859377964390425    
     2.530605246839394        0.1835803039962016    
     2.539484563494971        0.1812482742057007    
     2.548363880150547        0.1789415284657684    
     2.557243196806124        0.1766598859699921    
     2.566122513461701        0.1744031638561095    
     2.575001830117278        0.1721711773496389    
     2.583881146772855        0.1699637399026418    
     2.592760463428431        0.1677806633277440    
     2.601639780084009        0.1656217579274472    
     2.610519096739585        0.1634868326188362    
     2.619398413395162        0.1613756950540872    
     2.628277730050739        0.1592881517366325    
     2.637157046706315        0.1572240081331334    
     2.646036363361893        0.1551830687815331    
     2.654915680017469        0.1531651373952594    
     2.663794996673046        0.1511700169636243    
     2.672674313328623        0.1491975098484516    
     2.681553629984200        0.1472474178773849    
     2.690432946639777        0.1453195424336426    
     2.699312263295353        0.1434136845424114    
     2.708191579950930        0.1415296449540195    
     2.717070896606507        0.1396672242240742    
     2.725950213262084        0.1378262227905011    
     2.734829529917661        0.1360064410475286    
     2.743708846573238        0.1342076794169970    
     2.752588163228814        0.1324297384168266    
     2.761467479884391        0.1306724187268068    
     2.770346796539968        0.1289355212516744    
     2.779226113195545        0.1272188471818793    
     2.788105429851122        0.1255221980517778    
     2.796984746506698        0.1238453757954510    
     2.805864063162275        0.1221881828002176    
     2.814743379817852        0.1205504219580199    
     2.823622696473429        0.1189318967145821    
     2.832502013129006        0.1173324111164215    
     2.841381329784582        0.1157517698559211    
     2.850260646440159        0.1141897783144303    
     2.859139963095736        0.1126462426034522    
     2.868019279751313        0.1111209696038979    
     2.876898596406890        0.1096137670036916    
     2.885777913062467        0.1081244433335771    
     2.894657229718043        0.1066528080012627    
     2.903536546373620        0.1051986713238559    
     2.912415863029197        0.1037618445588596    
     2.921295179684774        0.1023421399335625    
     2.930174496340351        0.1009393706729709    
     2.939053812995927        0.9955335102624266E-01
     2.947933129651504        0.9818389629184700E-01
     2.956812446307081        0.9683082284130808E-01
     2.965691762962658        0.9549394814166481E-01
     2.974571079618235        0.9417309077662153E-01
     2.983450396273811        0.9286807046656395E-01
     2.992329712929388        0.9157870808733691E-01
     3.001209029584965        0.9030482568789144E-01
     3.010088346240542        0.8904624650678299E-01
     3.018967662896119        0.8780279498766851E-01
     3.027846979551696        0.8657429679371668E-01
     3.036726296207272        0.8536057882102756E-01
     3.045605612862849        0.8416146921104489E-01
     3.054484929518426        0.8297679736208428E-01
     3.063364246174003        0.8180639393991238E-01
     3.072243562829580        0.8065009088745889E-01
     3.081122879485156        0.7950772143364765E-01
     3.090002196140734        0.7837912010144683E-01
     3.098881512796310        0.7726412271509640E-01
     3.107760829451887        0.7616256640657187E-01
     3.116640146107464        0.7507428962129062E-01
     3.125519462763041        0.7399913212311975E-01
     3.134398779418618        0.7293693499867789E-01
     3.143278096074194        0.7188754066096781E-01
     3.152157412729771        0.7085079285235707E-01
     3.161036729385348        0.6982653664693940E-01
     3.169916046040925        0.6881461845229134E-01
     3.178795362696502        0.6781488601064521E-01
     3.187674679352078        0.6682718839950258E-01
     3.196553996007655        0.6585137603170364E-01
     3.205433312663232        0.6488730065497898E-01
     3.214312629318809        0.6393481535099786E-01
     3.223191945974386        0.6299377453393043E-01
     3.232071262629963        0.6206403394854918E-01
     3.240950579285539        0.6114545066787792E-01
     3.249829895941116        0.6023788309041130E-01
     3.258709212596693        0.5934119093692015E-01
     3.267588529252270        0.5845523524686280E-01
     3.276467845907847        0.5757987837440748E-01
     3.285347162563423        0.5671498398409149E-01
     3.294226479219000        0.5586041704612851E-01
     3.303105795874577        0.5501604383137863E-01
     3.311985112530154        0.5418173190599589E-01
     3.320864429185731        0.5335735012576256E-01
     3.329743745841308        0.5254276863013092E-01
     3.338623062496884        0.5173785883597887E-01
     3.347502379152461        0.5094249343110074E-01
     3.356381695808038        0.5015654636743145E-01
     3.365261012463615        0.4937989285402899E-01
     3.374140329119192        0.4861240934982092E-01
     3.383019645774768        0.4785397355612722E-01
     3.391898962430345        0.4710446440897059E-01
     3.400778279085922        0.4636376207118240E-01
     3.409657595741499        0.4563174792431836E-01
     3.418536912397076        0.4490830456039018E-01
     3.427416229052652        0.4419331577342803E-01
     3.436295545708230        0.4348666655087513E-01
     3.445174862363806        0.4278824306483085E-01
     3.454054179019383        0.4209793266314866E-01
     3.462933495674960        0.4141562386039496E-01
     3.471812812330537        0.4074120632868059E-01
     3.480692128986114        0.4007457088837254E-01
     3.489571445641690        0.3941560949868949E-01
     3.498450762297267        0.3876421524819491E-01
     3.507330078952844        0.3812028234518967E-01
     3.516209395608421        0.3748370610801346E-01
     3.525088712263998        0.3685438295526242E-01
     3.533968028919575        0.3623221039592780E-01
     3.542847345575151        0.3561708701946265E-01
     3.551726662230728        0.3500891248578220E-01
     3.560605978886305        0.3440758751520514E-01
     3.569485295541882        0.3381301387833992E-01
     3.578364612197459        0.3322509438592267E-01
     3.587243928853035        0.3264373287861021E-01
     3.596123245508612        0.3206883421673546E-01
     3.605002562164189        0.3150030427002881E-01
     3.613881878819766        0.3093804990731053E-01
     3.622761195475343        0.3038197898615844E-01
     3.631640512130919        0.2983200034255484E-01
     3.640519828786496        0.2928802378051963E-01
     3.649399145442073        0.2874996006172803E-01
     3.658278462097650        0.2821772089512325E-01
     3.667157778753227        0.2769121892652294E-01
     3.676037095408804        0.2717036772822559E-01
     3.684916412064380        0.2665508178862061E-01
     3.693795728719957        0.2614527650180156E-01
     3.702675045375534        0.2564086815719095E-01
     3.711554362031111        0.2514177392917587E-01
     3.720433678686688        0.2464791186675969E-01
     3.729312995342264        0.2415920088323288E-01
     3.738192311997842        0.2367556074585988E-01
     3.747071628653418        0.2319691206559396E-01
     3.755950945308995        0.2272317628681439E-01
     3.764830261964572        0.2225427567709472E-01
     3.773709578620148        0.2179013331700037E-01
     3.782588895275726        0.2133067308991627E-01
     3.791468211931302        0.2087581967191215E-01
     3.800347528586879        0.2042549852164261E-01
     3.809226845242456        0.1997963587028711E-01
     3.818106161898033        0.1953815871153210E-01
     3.826985478553610        0.1910099479159000E-01
     3.835864795209186        0.1866807259926695E-01
     3.844744111864763        0.1823932135607370E-01
     3.853623428520340        0.1781467100638508E-01
     3.862502745175917        0.1739405220764871E-01
     3.871382061831494        0.1697739632064098E-01
     3.880261378487071        0.1656463539977755E-01
     3.889140695142647        0.1615570218347441E-01
     3.898020011798224        0.1575053008456523E-01
     3.906899328453801        0.1534905318077257E-01
     3.915778645109378        0.1495120620523621E-01
     3.924657961764955        0.1455692453709917E-01
     3.933537278420531        0.1416614419215207E-01
     3.942416595076108        0.1377880181353926E-01
     3.951295911731685        0.1339483466252100E-01
     3.960175228387262        0.1301418060930287E-01
     3.969054545042839        0.1263677812392502E-01
     3.977933861698415        0.1226256626721577E-01
     3.986813178353992        0.1189148468180958E-01
     3.995692495009569        0.1152347358322802E-01
     4.004571811665146        0.1115847375102741E-01
     4.013451128320723        0.1079642652001748E-01
     4.022330444976300        0.1043727377328501E-01
     4.031209761631876        0.1008095803310293E-01
     4.040089078287453        0.9727423663662180E-02
     4.048968394943030        0.9376622186565356E-02
     4.057847711598606        0.9028523906744357E-02
     4.066727028254184        0.8683133588856969E-02
     4.075606344909761        0.8340505319698946E-02
     4.084485661565338        0.8000752769076296E-02
     4.093364978220914        0.7664053451478530E-02
     4.102244294876491        0.7330647414650567E-02
     4.111123611532068        0.7000831643499020E-02
     4.120002928187644        0.6674951640602030E-02
     4.128882244843221        0.6353391469825660E-02
     4.137761561498798        0.6036563257188591E-02
     4.146640878154375        0.5724896851257124E-02
     4.155520194809952        0.5418830101042278E-02
     4.164399511465529        0.5118800022847642E-02
     4.173278828121106        0.4825234993625833E-02
     4.182158144776682        0.4538548016621812E-02
     4.191037461432259        0.4259131044977982E-02
     4.199916778087836        0.3987350311649308E-02
     4.208796094743413        0.3723542592451585E-02
     4.217675411398989        0.3468012318248957E-02
     4.226554728054566        0.3221029448539424E-02
     4.235434044710143        0.2982828019394019E-02
     4.244313361365720        0.2753605282097256E-02
     4.253192678021297        0.2533521353769799E-02
     4.262071994676874        0.2322699306782749E-02
     4.270951311332451        0.2121225629497216E-02
     4.279830627988027        0.1929150996268793E-02
     4.288709944643604        0.1746491289489820E-02
     4.297589261299181        0.1573228820398048E-02
     4.306468577954758        0.1409313698142718E-02
     4.315347894610334        0.1254665297611020E-02
     4.324227211265911        0.1109173775063802E-02
     4.333106527921489        0.9727015752338453E-03
     4.341985844577065        0.8450848616860458E-03
     4.350865161232642        0.7261347790398274E-03
     4.359744477888219        0.6156384113594584E-03
     4.368623794543796        0.5133592149750931E-03
     4.377503111199372        0.4190365294331339E-03
     4.386382427854949        0.3323833917731768E-03
     4.395261744510526        0.2530809802535391E-03
     4.404141061166102        0.1807655939044628E-03
     4.413020377821679        0.1149962893451109E-03
     4.421899694477257        0.5515808997255883E-04
     4.430779011132834         0.000000000000000    
  0  6  1  0  1.000000   #orbital l, n, z, is_polarized, population
 500    0.2312959453956622E-01     11.54166767524354     # npts, delta, cutoff
     0.000000000000000        0.5388750187629666E-01
    0.2312959453956622E-01    0.5406444396981493E-01
    0.4625918907913244E-01    0.5459668557622532E-01
    0.6938878361869866E-01    0.5548040630266458E-01
    0.9251837815826489E-01    0.5671061441139046E-01
    0.1156479726978311        0.5828038355490034E-01
    0.1387775672373973        0.6018091195058452E-01
    0.1619071617769635        0.6240159506243591E-01
    0.1850367563165298        0.6493010981404000E-01
    0.2081663508560960        0.6775250849475505E-01