<preamble>

<basis_specs>
===============================================================================
Ga                   Z=  31    Mass=  69.723        Charge= 0.17977+309
Lmxo=2 Lmxkb= 2    BasisType=split      Semic=T
L=0  Nsemic=0  Cnfigmx=4
          i=1  nzeta=2  polorb=0  (4s)
            splnorm:   0.15000    
               vcte:    40.000    
               rinn:    5.5115    
               qcoe:    0.0000    
               qyuk:    0.0000    
               qwid:   0.10000E-01
                rcs:    6.1178      4.2609    
            lambdas:    1.0000      1.0000    
L=1  Nsemic=0  Cnfigmx=4
          i=1  nzeta=2  polorb=0  (4p)  (to be polarized non-perturbatively)
            splnorm:   0.15000    
               vcte:    40.000    
               rinn:    7.7625    
               qcoe:    0.0000    
               qyuk:    0.0000    
               qwid:   0.10000E-01
                rcs:    8.6164      6.1732    
            lambdas:    1.0000      1.0000    
L=2  Nsemic=1  Cnfigmx=4
          i=1  nzeta=1  polorb=0  (3d)  (semicore shell)
            splnorm:   0.15000    
               vcte:    40.000    
               rinn:    2.9786    
               qcoe:    0.0000    
               qyuk:    0.0000    
               qwid:   0.10000E-01
                rcs:    3.3062    
            lambdas:    1.0000    
          i=2  nzeta=1  polorb=0  (4d)  (non-perturbative polarization shell)
            splnorm:   0.15000    
               vcte:    40.000    
               rinn:    7.7625    
               qcoe:    0.0000    
               qyuk:    0.0000    
               qwid:   0.10000E-01
                rcs:    8.6164    
            lambdas:    1.0000    
-------------------------------------------------------------------------------
L=0  Nkbl=1  erefs: 0.17977+309
L=1  Nkbl=1  erefs: 0.17977+309
L=2  Nkbl=2  erefs: 0.17977+309 0.17977+309
===============================================================================
</basis_specs>

<pseudopotential_header>
 Ga pb nrl pcec
 ONCVPSP-3.2017-10-31Hamann's oncvpsp                        
 4s 2.00  r= 1.67/4p 1.00  r= 1.75/3d10.00  r= 1.90/                    3d:4s:4p:
</pseudopotential_header>
</preamble>
Ga                            # Symbol
Ga                            # Label
   31                         # Atomic number
     13.0000000000                             # Valence charge
     69.7230000000        # Mass 
     165.583642179        # Self energy 
   2   6                      # Lmax for basis, no. of nl orbitals 
   2   6                      # Lmax for projectors, no. of nl KB projectors
# PAOs:__________________________
  0  4  1  0  2.000000   #orbital l, n, z, is_polarized, population
 500    0.1226004679529594E-01     6.117763350852673     # npts, delta, cutoff
     0.000000000000000        0.2051767819882178E-01
    0.1226004679529594E-01    0.2060228926987846E-01
    0.2452009359059188E-01    0.2085738298065924E-01
    0.3678014038588782E-01    0.2128230115305974E-01
    0.4904018718118375E-01    0.2187668634857539E-01
    0.6130023397647969E-01    0.2264003832159621E-01
    0.7356028077177564E-01    0.2357171402375021E-01
    0.8582032756707157E-01    0.2467092768625453E-01
    0.9808037436236751E-01    0.2593675094094022E-01
    0.1103404211576634        0.2736811298236013E-01
    0.1226004679529594        0.2896380077882689E-01
    0.1348605147482553        0.3072245934226397E-01
    0.1471205615435513        0.3264259206809949E-01
    0.1593806083388472        0.3472256115748541E-01
    0.1716406551341431        0.3696058813495492E-01
    0.1839007019294391        0.3935475447528076E-01
    0.1961607487247350        0.4190300235373395E-01
    0.2084207955200310        0.4460313553420418E-01
    0.2206808423153269        0.4745282040972013E-01
    0.2329408891106228        0.5044958720980357E-01
    0.2452009359059188        0.5359083138881070E-01
    0.2574609827012147        0.5687381520894789E-01
    0.2697210294965107        0.6029566953102079E-01
    0.2819810762918066        0.6385339582516969E-01
    0.2942411230871025        0.6754386841288261E-01
    0.3065011698823984        0.7136383695045269E-01
    0.3187612166776944        0.7530992916278016E-01
    0.3310212634729903        0.7937865383500825E-01
    0.3432813102682863        0.8356640406795411E-01
    0.3555413570635822        0.8786946080164436E-01
    0.3678014038588782        0.9228399660952315E-01
    0.3800614506541741        0.9680607976406849E-01
    0.3923214974494700        0.1014316785726572    
    0.4045815442447660        0.1061566659805692    
    0.4168415910400619        0.1109768244360443    
    0.4291016378353579        0.1158878510103069    
    0.4413616846306538        0.1208853627634853    
    0.4536217314259497        0.1259649023453830    
    0.4658817782212457        0.1311219438181357    
    0.4781418250165416        0.1363518986859163    
    0.4904018718118375        0.1416501221150739    
    0.5026619186071335        0.1470119193263857    
    0.5149219654024294        0.1524325521395352    
    0.5271820121977253        0.1579072456484727    
    0.5394420589930213        0.1634311950050071    
    0.5517021057883172        0.1689995722868351    
    0.5639621525836132        0.1746075334252243    
    0.5762221993789091        0.1802502251667731    
    0.5884822461742051        0.1859227920430619    
    0.6007422929695010        0.1916203833215925    
    0.6130023397647969        0.1973381599112029    
    0.6252623865600929        0.2030713011951505    
    0.6375224333553888        0.2088150117652580    
    0.6497824801506847        0.2145645280309257    
    0.6620425269459806        0.2203151246774576    
    0.6743025737412767        0.2260621209489590    
    0.6865626205365726        0.2318008867321015    
    0.6988226673318685        0.2375268484182726    
    0.7110827141271644        0.2432354945230152    
    0.7233427609224604        0.2489223810432619    
    0.7356028077177563        0.2545831365345637    
    0.7478628545130522        0.2602134668924432    
    0.7601229013083481        0.2658091598239488    
    0.7723829481036442        0.2713660889976630    
    0.7846429948989401        0.2768802178625947    
    0.7969030416942360        0.2823476031287008    
    0.8091630884895320        0.2877643979041206    
    0.8214231352848279        0.2931268544865947    
    0.8336831820801238        0.2984313268089479    
    0.8459432288754197        0.3036742725409046    
    0.8582032756707157        0.3088522548518798    
    0.8704633224660117        0.3139619438417182    
    0.8827233692613076        0.3190001176486119    
    0.8949834160566035        0.3239636632455964    
    0.9072434628518995        0.3288495769390743    
    0.9195035096471954        0.3336549645848186    
    0.9317635564424913        0.3383770415385984    
    0.9440236032377872        0.3430131323603498    
    0.9562836500330832        0.3475606702921651    
    0.9685436968283792        0.3520171965317326    
    0.9808037436236751        0.3563803593239305    
    0.9930637904189711        0.3606479128941538    
     1.005323837214267        0.3648177162476321    
     1.017583884009563        0.3688877318594542    
     1.029843930804859        0.3728560242802253    
     1.042103977600155        0.3767207586823405    
     1.054364024395451        0.3804801993715120    
     1.066624071190747        0.3841327082879050    
     1.078884117986043        0.3876767435205020    
     1.091144164781338        0.3911108578573448    
     1.103404211576634        0.3944336973933825    
     1.115664258371931        0.3976440002163588    
     1.127924305167226        0.4007405951895788    
     1.140184351962522        0.4037224008489018    
     1.152444398757818        0.4065884244295921    
     1.164704445553114        0.4093377610364630    
     1.176964492348410        0.4119695929691189    
     1.189224539143706        0.4144831892116569    
     1.201484585939002        0.4168779050940694    
     1.213744632734298        0.4191531821304078    
     1.226004679529594        0.4213085480363645    
     1.238264726324890        0.4233436169266219    
     1.250524773120186        0.4252580896900717    
     1.262784819915482        0.4270517545386558    
     1.275044866710778        0.4287244877232230    
     1.287304913506073        0.4302762544079415    
     1.299564960301369        0.4317071096924042    
     1.311825007096665        0.4330171997687111    
     1.324085053891961        0.4342067631990580    
     1.336345100687257        0.4352761322973833    
     1.348605147482553        0.4362257345973795    
     1.360865194277849        0.4370560943875914    
     1.373125241073145        0.4377678342932287    
     1.385385287868441        0.4383616768832437    
     1.397645334663737        0.4388384462804575    
     1.409905381459033        0.4391990697520440    
     1.422165428254329        0.4394445792570915    
     1.434425475049625        0.4395761129278013    
     1.446685521844921        0.4395949164614514    
     1.458945568640217        0.4395023443999861    
     1.471205615435513        0.4392998612738622    
     1.483465662230809        0.4389890425900081    
     1.495725709026104        0.4385715756420128    
     1.507985755821400        0.4380492601220545    
     1.520245802616696        0.4374240085171596    
     1.532505849411992        0.4366978462732328    
     1.544765896207288        0.4358729117091875    
     1.557025943002584        0.4349514556685787    
     1.569285989797880        0.4339358408993229    
     1.581546036593176        0.4328285411467811    
     1.593806083388472        0.4316321399553449    
     1.606066130183768        0.4303493291744532    
     1.618326176979064        0.4289829072190724    
     1.630586223774360        0.4275357772116649    
     1.642846270569656        0.4260109424479835    
     1.655106317364952        0.4244115076981644    
     1.667366364160248        0.4227406835105265    
     1.679626410955544        0.4210017496105810    
     1.691886457750839        0.4191979828678540    
     1.704146504546135        0.4173325778112089    
     1.716406551341431        0.4154086061767525    
     1.728666598136727        0.4134290267606383    
     1.740926644932023        0.4113966957611146    
     1.753186691727319        0.4093143675980946    
     1.765446738522615        0.4071846979323486    
     1.777706785317911        0.4050102473281134    
     1.789966832113207        0.4027934844842604    
     1.802226878908503        0.4005367893716493    
     1.814486925703799        0.3982424563281473    
     1.826746972499095        0.3959126969453806    
     1.839007019294391        0.3935496430640679    
     1.851267066089687        0.3911553494177177    
     1.863527112884983        0.3887317962761619    
     1.875787159680279        0.3862808921275672    
     1.888047206475574        0.3838044758353231    
     1.900307253270870        0.3813043196645676    
     1.912567300066166        0.3787821310608189    
     1.924827346861462        0.3762395552056584    
     1.937087393656758        0.3736781777712668    
     1.949347440452054        0.3710995247771829    
     1.961607487247350        0.3685050665376200    
     1.973867534042646        0.3658962192090284    
     1.986127580837942        0.3632743460543416    
     1.998387627633238        0.3606407604694208    
     2.010647674428534        0.3579967266644383    
     2.022907721223830        0.3553434612791901    
     2.035167768019126        0.3526821354419225    
     2.047427814814422        0.3500138762005491    
     2.059687861609718        0.3473397678948738    
     2.071947908405014        0.3446608536366751    
     2.084207955200310        0.3419781367003052    
     2.096468001995606        0.3392925818445655    
     2.108728048790901        0.3366051165965975    
     2.120988095586197        0.3339166324907286    
     2.133248142381493        0.3312279862648698    
     2.145508189176789        0.3285400010128109    
     2.157768235972085        0.3258534673002074    
     2.170028282767381        0.3231691442378252    
     2.182288329562677        0.3204877605234069    
     2.194548376357973        0.3178100154419969    
     2.206808423153269        0.3151365798391724    
     2.219068469948565        0.3124680970545623    
     2.231328516743861        0.3098051838307743    
     2.243588563539157        0.3071484311863486    
     2.255848610334453        0.3044984052641175    
     2.268108657129749        0.3018556481487037    
     2.280368703925045        0.2992206786585949    
     2.292628750720341        0.2965939931121150    
     2.304888797515636        0.2939760660677002    
     2.317148844310932        0.2913673510414374    
     2.329408891106228        0.2887682811999956    
     2.341668937901524        0.2861792700322479    
     2.353928984696820        0.2836007119990591    
     2.366189031492116        0.2810329831616583    
     2.378449078287412        0.2784764417911618    
     2.390709125082708        0.2759314289574028    
     2.402969171878004        0.2733982690997351    
     2.415229218673300        0.2708772705803081    
     2.427489265468596        0.2683687262175129    
     2.439749312263892        0.2658729138068276    
     2.452009359059188        0.2633900966199779    
     2.464269405854484        0.2609205238931586    
     2.476529452649780        0.2584644312970272    
     2.488789499445076        0.2560220413923375    
     2.501049546240372        0.2535935640735651    
     2.513309593035667        0.2511791969943822    
     2.525569639830963        0.2487791259849424    
     2.537829686626259        0.2463935254517724    
     2.550089733421555        0.2440225587675144    
     2.562349780216851        0.2416663786486912    
     2.574609827012147        0.2393251275196800    
     2.586869873807443        0.2369989378681948    
     2.599129920602739        0.2346879325872524    
     2.611389967398035        0.2323922253077647    
     2.623650014193331        0.2301119207207460    
     2.635910060988627        0.2278471148891352    
     2.648170107783923        0.2255978955499716    
     2.660430154579219        0.2233643424076497    
     2.672690201374515        0.2211465274176257    
     2.684950248169811        0.2189445150610123    
     2.697210294965107        0.2167583626120147    
     2.709470341760402        0.2145881203950484    
     2.721730388555698        0.2124338320354708    
     2.733990435350994        0.2102955347025822    
     2.746250482146290        0.2081732593428460    
     2.758510528941586        0.2060670309092228    
     2.770770575736882        0.2039768685808986    
     2.783030622532178        0.2019027859764708    
     2.795290669327474        0.1998447913618725    
     2.807550716122770        0.1978028878489016    
     2.819810762918066        0.1957770735919851    
     2.832070809713362        0.1937673419858544    
     2.844330856508658        0.1917736818213657    
     2.856590903303954        0.1897960774760965    
     2.868850950099250        0.1878345090772008    
     2.881110996894546        0.1858889527270817    
     2.893371043689842        0.1839593805792269    
     2.905631090485137        0.1820457610190434    
     2.917891137280433        0.1801480588384851    
     2.930151184075729        0.1782662354870393    
     2.942411230871025        0.1764002489700523    
     2.954671277666321        0.1745500540406797    
     2.966931324461617        0.1727156020878145    
     2.979191371256913        0.1708968423560016    
     2.991451418052209        0.1690937210492628    
     3.003711464847505        0.1673061814200708    
     3.015971511642801        0.1655341642127240    
     3.028231558438097        0.1637776077925778    
     3.040491605233393        0.1620364482167444    
     3.052751652028689        0.1603106192949482    
     3.065011698823985        0.1586000526947680    
     3.077271745619281        0.1569046780491222    
     3.089531792414577        0.1552244230575270    
     3.101791839209873        0.1535592135776673    
     3.114051886005168        0.1519089737143738    
     3.126311932800464        0.1502736259068152    
     3.138571979595760        0.1486530910126497    
     3.150832026391056        0.1470472883894821    
     3.163092073186352        0.1454561359737303    
     3.175352119981648        0.1438795503568736    
     3.187612166776944        0.1423174468592474    
     3.199872213572240        0.1407697396014737    
     3.212132260367536        0.1392363415734819    
     3.224392307162832        0.1377171647012878    
     3.236652353958128        0.1362121199116128    
     3.248912400753424        0.1347211171943214    
     3.261172447548720        0.1332440656627996    
     3.273432494344016        0.1317808736123592    
     3.285692541139312        0.1303314485766695    
     3.297952587934608        0.1288956973822957    
     3.310212634729903        0.1274735262014273    
     3.322472681525199        0.1260648406028353    
     3.334732728320495        0.1246695456010734    
     3.346992775115791        0.1232875457040353    
     3.359252821911087        0.1219187449589072    
     3.371512868706383        0.1205630469965025    
     3.383772915501679        0.1192203550740984    
     3.396032962296975        0.1178905721168123    
     3.408293009092271        0.1165736007575023    
     3.420553055887567        0.1152693433752952    
     3.432813102682863        0.1139777021327758    
     3.445073149478159        0.1126985790118484    
     3.457333196273455        0.1114318758483268    
     3.469593243068751        0.1101774943652981    
     3.481853289864047        0.1089353362052994    
     3.494113336659343        0.1077053029613076    
     3.506373383454638        0.1064872962066199    
     3.518633430249934        0.1052812175236487    
     3.530893477045230        0.1040869685316381    
     3.543153523840526        0.1029044509133589    
     3.555413570635822        0.1017335664408106    
     3.567673617431118        0.1005742169999533    
     3.579933664226414        0.9942630461449166E-01
     3.592193711021710        0.9828973146875256E-01
     3.604453757817006        0.9716439992968823E-01
     3.616713804612302        0.9605021256800382E-01
     3.628973851407598        0.9494707217846003E-01
     3.641233898202894        0.9385488179937207E-01
     3.653493944998190        0.9277354473132148E-01
     3.665753991793486        0.9170296455510424E-01
     3.678014038588782        0.9064304514894347E-01
     3.690274085384078        0.8959369070499328E-01
     3.702534132179374        0.8855480574513735E-01
     3.714794178974669        0.8752629513611897E-01
     3.727054225769965        0.8650806410401894E-01
     3.739314272565261        0.8550001824810072E-01
     3.751574319360557        0.8450206355403495E-01
     3.763834366155853        0.8351410640653284E-01
     3.776094412951149        0.8253605360140098E-01
     3.788354459746445        0.8156781235703311E-01
     3.800614506541741        0.8060929032535903E-01
     3.812874553337037        0.7966039560226518E-01
     3.825134600132333        0.7872103673750834E-01
     3.837394646927629        0.7779112274412529E-01
     3.849654693722925        0.7687056310736795E-01
     3.861914740518221        0.7595926779316969E-01
     3.874174787313517        0.7505714725616179E-01
     3.886434834108813        0.7416411244724957E-01
     3.898694880904109        0.7328007482076458E-01
     3.910954927699404        0.7240494634120663E-01
     3.923214974494700        0.7153863948958575E-01
     3.935475021289996        0.7068106726937831E-01
     3.947735068085292        0.6983214321210952E-01
     3.959995114880588        0.6899178138257198E-01
     3.972255161675884        0.6815989638369410E-01
     3.984515208471180        0.6733640336106866E-01
     3.996775255266476        0.6652121800715144E-01
     4.009035302061772        0.6571425656514089E-01
     4.021295348857068        0.6491543583254986E-01
     4.033555395652364        0.6412467316447820E-01
     4.045815442447660        0.6334188647659730E-01
     4.058075489242956        0.6256699424785189E-01
     4.070335536038252        0.6179991552289509E-01
     4.082595582833547        0.6104056991425977E-01
     4.094855629628843        0.6028887760427754E-01
     4.107115676424139        0.5954475934675058E-01
     4.119375723219435        0.5880813646839085E-01
     4.131635770014731        0.5807893087002917E-01
     4.143895816810027        0.5735706502760234E-01
     4.156155863605323        0.5664246199292770E-01
     4.168415910400619        0.5593504539427254E-01
     4.180675957195915        0.5523473943672346E-01
     4.192936003991211        0.5454146890236546E-01
     4.205196050786507        0.5385515915027026E-01
     4.217456097581803        0.5317573611631361E-01
     4.229716144377099        0.5250312631281626E-01
     4.241976191172395        0.5183725682801949E-01
     4.254236237967691        0.5117805532539771E-01
     4.266496284762987        0.5052545004282193E-01
     4.278756331558283        0.4987936979157102E-01
     4.291016378353579        0.4923974395520201E-01
     4.303276425148875        0.4860650248827848E-01
     4.315536471944171        0.4797957591497160E-01
     4.327796518739467        0.4735889532753181E-01
     4.340056565534763        0.4674439238463851E-01
     4.352316612330058        0.4613599930962928E-01
     4.364576659125354        0.4553364888861937E-01
     4.376836705920650        0.4493727446851232E-01
     4.389096752715946        0.4434680995490638E-01
     4.401356799511242        0.4376218980990061E-01
     4.413616846306538        0.4318334904980269E-01
     4.425876893101834        0.4261022324275160E-01
     4.438136939897130        0.4204274850624883E-01
     4.450396986692426        0.4148086150460596E-01
     4.462657033487722        0.4092449944630863E-01
     4.474917080283017        0.4037360008131230E-01
     4.487177127078313        0.3982810169825857E-01
     4.499437173873609        0.3928794312162502E-01
     4.511697220668905        0.3875306370880430E-01
     4.523957267464201        0.3822340334712448E-01
     4.536217314259497        0.3769890245080906E-01
     4.548477361054793        0.3717950195787895E-01
     4.560737407850089        0.3666514332699907E-01
     4.572997454645385        0.3615576853427231E-01
     4.585257501440681        0.3565132006999126E-01
     4.597517548235977        0.3515174093533883E-01
     4.609777595031272        0.3465697463904818E-01
     4.622037641826569        0.3416696519401533E-01
     4.634297688621865        0.3368165711388268E-01
     4.646557735417161        0.3320099540958131E-01
     4.658817782212457        0.3272492558584115E-01
     4.671077829007753        0.3225339363766687E-01
     4.683337875803049        0.3178634604678379E-01
     4.695597922598345        0.3132372977806266E-01
     4.707857969393641        0.3086549227591314E-01
     4.720118016188937        0.3041158146065764E-01
     4.732378062984233        0.2996194572487493E-01
     4.744638109779528        0.2951653392973508E-01
     4.756898156574824        0.2907529540131100E-01
     4.769158203370120        0.2863817992687348E-01
     4.781418250165416        0.2820513775117290E-01
     4.793678296960712        0.2777611957270069E-01
     4.805938343756008        0.2735107653995130E-01
     4.818198390551304        0.2692996024766536E-01
     4.830458437346600        0.2651272273306804E-01
     4.842718484141896        0.2609931647209372E-01
     4.854978530937192        0.2568969437560971E-01
     4.867238577732488        0.2528380978563659E-01
     4.879498624527783        0.2488161647156099E-01
     4.891758671323079        0.2448306862634923E-01
     4.904018718118375        0.2408812086275127E-01
     4.916278764913671        0.2369672820951535E-01
     4.928538811708967        0.2330884610759856E-01
     4.940798858504263        0.2292443040637874E-01
     4.953058905299559        0.2254343735987139E-01
     4.965318952094855        0.2216582362294139E-01
     4.977578998890151        0.2179154624753318E-01
     4.989839045685447        0.2142056267889822E-01
     5.002099092480743        0.2105283075182983E-01
     5.014359139276038        0.2068830868690598E-01
     5.026619186071335        0.2032695508673376E-01
     5.038879232866631        0.1996872893221387E-01
     5.051139279661927        0.1961358957880692E-01
     5.063399326457223        0.1926149675281120E-01
     5.075659373252519        0.1891241054765024E-01
     5.087919420047815        0.1856629142016794E-01
     5.100179466843111        0.1822310018694537E-01
     5.112439513638407        0.1788279802062208E-01
     5.124699560433703        0.1754534644623288E-01
     5.136959607228999        0.1721070733755601E-01
     5.149219654024294        0.1687884291347337E-01
     5.161479700819590        0.1654971573435262E-01
     5.173739747614886        0.1622328869843786E-01
     5.185999794410182        0.1589952503825754E-01
     5.198259841205478        0.1557838831704598E-01
     5.210519888000774        0.1525984242517841E-01
     5.222779934796070        0.1494385157663109E-01
     5.235039981591366        0.1463038030545075E-01
     5.247300028386662        0.1431939346224299E-01
     5.259560075181958        0.1401085621067729E-01
     5.271820121977254        0.1370473402400538E-01
     5.284080168772549        0.1340099268160694E-01
     5.296340215567845        0.1309959826554592E-01
     5.308600262363141        0.1280051715714687E-01
     5.320860309158437        0.1250371603359106E-01
     5.333120355953733        0.1220916186452225E-01
     5.345380402749029        0.1191682190868622E-01
     5.357640449544325        0.1162666371057848E-01
     5.369900496339621        0.1133865509711394E-01
     5.382160543134917        0.1105276417431809E-01
     5.394420589930213        0.1076895932402684E-01
     5.406680636725509        0.1048720920062121E-01
     5.418940683520804        0.1020748272777189E-01
     5.431200730316101        0.9929749095205425E-02
     5.443460777111397        0.9653977755491526E-02
     5.455720823906693        0.9380138420843962E-02
     5.467980870701989        0.9108201059948679E-02
     5.480240917497285        0.8838135894809234E-02
     5.492500964292581        0.8569913397611161E-02
     5.504761011087877        0.8303504287606707E-02
     5.517021057883173        0.8038879528019072E-02
     5.529281104678469        0.7776010322963221E-02
     5.541541151473765        0.7514868114395291E-02
     5.553801198269060        0.7255424580758560E-02
     5.566061245064356        0.6997651729503339E-02
     5.578321291859652        0.6741523054824566E-02
     5.590581338654948        0.6487018623043467E-02
     5.602841385450244        0.6234136148030167E-02
     5.615101432245540        0.5982905833897461E-02
     5.627361479040836        0.5733404293681369E-02
     5.639621525836132        0.5485763924517594E-02
     5.651881572631428        0.5240176436067499E-02
     5.664141619426724        0.4996890985114694E-02
     5.676401666222019        0.4756208193359681E-02
     5.688661713017315        0.4518471484358624E-02
     5.700921759812611        0.4284057000515320E-02
     5.713181806607907        0.4053363073835838E-02
     5.725441853403203        0.3826799938345702E-02
     5.737701900198499        0.3604780132690644E-02
     5.749961946993795        0.3387709858303283E-02
     5.762221993789091        0.3175981426441382E-02
     5.774482040584387        0.2969966836360326E-02
     5.786742087379683        0.2770012466760190E-02
     5.799002134174979        0.2576434824857416E-02
     5.811262180970274        0.2389517275294229E-02
     5.823522227765570        0.2209507659644865E-02
     5.835782274560867        0.2036616712978470E-02
     5.848042321356163        0.1871017184250281E-02
     5.860302368151459        0.1712843570498138E-02
     5.872562414946755        0.1562192379725993E-02
     5.884822461742051        0.1419122843129484E-02
     5.897082508537347        0.1283658003430304E-02
     5.909342555332643        0.1155786112134612E-02
     5.921602602127939        0.1035462274237288E-02
     5.933862648923235        0.9226102840222386E-03
     5.946122695718530        0.8171245999206209E-03
     5.958382742513826        0.7188724095455265E-03
     5.970642789309122        0.6276957375537410E-03
     5.982902836104418        0.5434135480205614E-03
     5.995162882899714        0.4658237880131554E-03
     6.007422929695010        0.3947053070376889E-03
     6.019682976490306        0.3298195620366266E-03
     6.031943023285602        0.2709119668805304E-03
     6.044203070080898        0.2177126397710446E-03
     6.056463116876194        0.1699360694655482E-03
     6.068723163671490        0.1272786623611226E-03
     6.080983210466785        0.8941161299846192E-04
     6.093243257262081        0.5596160463960898E-04
     6.105503304057377        0.2645057951133296E-04
     6.117763350852673         0.000000000000000    
  0  4  2  0  0.000000   #orbital l, n, z, is_polarized, population
 500    0.8538922571381374E-02     4.260922363119305     # npts, delta, cutoff
     0.000000000000000       -0.2703324544945925    
    0.8538922571381374E-02   -0.2702547886131442    
    0.1707784514276275E-01   -0.2700193171440688    
    0.2561676771414412E-01   -0.2696269695489603    
    0.3415569028552549E-01   -0.2690779043206396    
    0.4269461285690687E-01   -0.2683723430428473    
    0.5123353542828824E-01   -0.2675105705407193    
    0.5977245799966961E-01   -0.2664929348868516    
    0.6831138057105099E-01   -0.2653198473848215    
    0.7685030314243237E-01   -0.2639917825430307    