<preamble>

<basis_specs>
===============================================================================
H                    Z=   1    Mass=  1.0080        Charge= 0.17977+309
Lmxo=1 Lmxkb= 1    BasisType=split      Semic=F
L=0  Nsemic=0  Cnfigmx=1
          i=1  nzeta=2  polorb=1  (1s)  (to be polarized perturbatively)
            splnorm:   0.15000    
               vcte:    40.000    
               rinn:    5.0871    
               qcoe:    0.0000    
               qyuk:    0.0000    
               qwid:   0.10000E-01
                rcs:    5.6466      3.6844    
            lambdas:    1.0000      1.0000    
L=1  Nsemic=0  Cnfigmx=2
          i=1  nzeta=0  polorb=0  (2p)  (perturbative polarization orbital) (from 1s)
-------------------------------------------------------------------------------
L=0  Nkbl=1  erefs: 0.17977+309
L=1  Nkbl=1  erefs: 0.17977+309
===============================================================================
</basis_specs>

<pseudopotential_header>
 H  pb nrl nc  
 ONCVPSP-3.2017-10-31Hamann's oncvpsp                        
 1s 1.00  r= 1.01/2p 0.00  r= 0.71/                                     1s:
</pseudopotential_header>
</preamble>
H                             # Symbol
H                             # Label
    1                         # Atomic number
     1.00000000000                             # Valence charge
     1.00800000000        # Mass 
     2.27454303330        # Self energy 
   1   3                      # Lmax for basis, no. of nl orbitals 
   1   3                      # Lmax for projectors, no. of nl KB projectors
# PAOs:__________________________
  0  1  1  0  1.000000   #orbital l, n, z, is_polarized, population
 500    0.1131590884962134E-01     5.646638515961048     # npts, delta, cutoff
     0.000000000000000         1.585435409901689    
    0.1131590884962134E-01     1.585157823976622    
    0.2263181769924268E-01     1.584333672910225    
    0.3394772654886402E-01     1.582962390913637    
    0.4526363539848536E-01     1.581047408866262    
    0.5657954424810670E-01     1.578593489314419    
    0.6789545309772804E-01     1.575606685529087    
    0.7921136194734937E-01     1.572094290480311    
    0.9052727079697072E-01     1.568064776280555    
    0.1018431796465921         1.563527725060423    
    0.1131590884962134         1.558493752397483    
    0.1244749973458347         1.552974424532028    
    0.1357909061954561         1.546982170688144    
    0.1471068150450774         1.540530191875658    
    0.1584227238946987         1.533632367577548    
    0.1697386327443201         1.526303161728610    
    0.1810545415939414         1.518557529364305    
    0.1923704504435628         1.510410825264753    
    0.2036863592931841         1.501878715839314    
    0.2150022681428055         1.492977095393479    
    0.2263181769924268         1.483722007795453    
    0.2376340858420481         1.474129574415957    
    0.2489499946916695         1.464215929056456    
    0.2602659035412908         1.453997160410628    
    0.2715818123909122         1.443489262425705    
    0.2828977212405335         1.432708092747883    
    0.2942136300901548         1.421669339253994    
    0.3055295389397762         1.410388494493274    
    0.3168454477893975         1.398880837692773    
    0.3281613566390189         1.387161423820980    
    0.3394772654886402         1.375245079060154    
    0.3507931743382615         1.363146401912125    
    0.3621090831878829         1.350879769056192    
    0.3734249920375042         1.338459344995341    
    0.3847409008871255         1.325899094467980    
    0.3960568097367469         1.313212796569369    
    0.4073727185863683         1.300414059519144    
    0.4186886274359896         1.287516335029822    
    0.4300045362856109         1.274532931274620    
    0.4413204451352323         1.261477023519655    
    0.4526363539848536         1.248361661575577    
    0.4639522628344749         1.235199773332423    
    0.4752681716840963         1.222004163768233    
    0.4865840805337176         1.208787508962348    
    0.4978999893833390         1.195562344795849    
    0.5092158982329603         1.182341050180446    
    0.5205318070825816         1.169135825293422    
    0.5318477159322029         1.155958663009594    
    0.5431636247818243         1.142821316574938    
    0.5544795336314456         1.129735263371729    
    0.5657954424810669         1.116711663563106    
    0.5771113513306884         1.103761316018642    
    0.5884272601803097         1.090894611931220    
    0.5997431690299310         1.078121487058480    
    0.6110590778795524         1.065451373589186    
    0.6223749867291737         1.052893152678217    
    0.6336908955787950         1.040455108711720    
    0.6450068044284164         1.028144886360305    
    0.6563227132780377         1.015969451445856    
    0.6676386221276590         1.003935056595195    
    0.6789545309772804        0.9920472125757041    
    0.6902704398269017        0.9803106661111698    
    0.7015863486765230        0.9687293848586462    
    0.7129022575261444        0.9573065500944421    
    0.7242181663757657        0.9460445575107447    
    0.7355340752253871        0.9349450263676464    
    0.7468499840750085        0.9240088170819555    
    0.7581658929246298        0.9132360571674750    
    0.7694818017742511        0.9026261752750884    
    0.7807977106238725        0.8921779429188534    
    0.7921136194734938        0.8818895233195334    
    0.8034295283231151        0.8717585266531688    
    0.8147454371727365        0.8617820708623588    
    0.8260613460223578        0.8519568470748832    
    0.8373772548719791        0.8422791885800569    
    0.8486931637216005        0.8327451422404921    
    0.8600090725712218        0.8233505411664148    
    0.8713249814208431        0.8140910774531609    
    0.8826408902704646        0.8049623737797432    
    0.8939567991200859        0.7959600526880775    
    0.9052727079697072        0.7870798024074875    
    0.9165886168193286        0.7783174381567796    
    0.9279045256689499        0.7696689579449272    
    0.9392204345185712        0.7611305919991200    
    0.9505363433681926        0.7526988450734596    
    0.9618522522178139        0.7443705310302270    
    0.9731681610674352        0.7361427992339628    
    0.9844840699170566        0.7280131525671456    
    0.9957999787666779        0.7199794559816547    
     1.007115887616299        0.7120399392076584    
     1.018431796465921        0.7041931834668022    
     1.029747705315542        0.6964379896569827    
     1.041063614165163        0.6887732145384055    
     1.052379523014785        0.6811977238392188    
     1.063695431864406        0.6737103997789814    
     1.075011340714027        0.6663101390715666    
     1.086327249563649        0.6589958528191994    
     1.097643158413270        0.6517664664456571    
     1.108959067262891        0.6446209194984703    
     1.120274976112513        0.6375581654959056    
     1.131590884962134        0.6305771717610170    
     1.142906793811755        0.6236769192582776    
     1.154222702661377        0.6168564024301590    
     1.165538611510998        0.6101146290339705    
     1.176854520360619        0.6034506199789643    
     1.188170429210241        0.5968634091639992    
     1.199486338059862        0.5903520433156759    
     1.210802246909483        0.5839155818271948    
     1.222118155759105        0.5775530965978605    
     1.233434064608726        0.5712636718733269    
     1.244749973458347        0.5650464040867516    
     1.256065882307969        0.5589004017008969    
     1.267381791157590        0.5528247850511038    
     1.278697700007212        0.5468186861893022    
     1.290013608856833        0.5408812487291828    
     1.301329517706454        0.5350116276924427    
     1.312645426556075        0.5292089893561643    
     1.323961335405697        0.5234725111014242    
     1.335277244255318        0.5178013812632222    
     1.346593153104940        0.5121947989815804    
     1.357909061954561        0.5066519740540144    
     1.369224970804182        0.5011721267893703    
     1.380540879653803        0.4957544878629738    
     1.391856788503425        0.4903982981732176    
     1.403172697353046        0.4851028086995711    
     1.414488606202668        0.4798672803620134    
     1.425804515052289        0.4746909838819168    
     1.437120423901910        0.4695731996444143    
     1.448436332751531        0.4645132175622810    
     1.459752241601153        0.4595103369412860    
     1.471068150450774        0.4545638663470586    
     1.482384059300395        0.4496731234734890    
     1.493699968150017        0.4448374350126786    
     1.505015876999638        0.4400561365264243    
     1.516331785849260        0.4353285723191982    
     1.527647694698881        0.4306540953127326    
     1.538963603548502        0.4260320669221699    
     1.550279512398123        0.4214618569337237    
     1.561595421247745        0.4169428433839119    
     1.572911330097366        0.4124744124403575    
     1.584227238946988        0.4080559582841476    
     1.595543147796609        0.4036868829937485    
     1.606859056646230        0.3993665964304599    
     1.618174965495851        0.3950945161254292    
     1.629490874345473        0.3908700671682189    
     1.640806783195094        0.3866926820968995    
     1.652122692044716        0.3825618007896837    
     1.663438600894337        0.3784768703581047    
     1.674754509743958        0.3744373450417094    
     1.686070418593580        0.3704426861042538    
     1.697386327443201        0.3664923617314169    
     1.708702236292822        0.3625858469300155    
     1.720018145142444        0.3587226234287078    
     1.731334053992065        0.3549021795801798    
     1.742649962841686        0.3511240102647886    
     1.753965871691308        0.3473876167956714    
     1.765281780540929        0.3436925068253164    
     1.776597689390550        0.3400381942535555    
     1.787913598240172        0.3364241991369768    
     1.799229507089793        0.3328500475997583    
     1.810545415939414        0.3293152717459064    
     1.821861324789036        0.3258194095728711    
     1.833177233638657        0.3223620048865306    
     1.844493142488278        0.3189426072175447    
     1.855809051337900        0.3155607717390501    
     1.867124960187521        0.3122160591856796    
     1.878440869037142        0.3089080357739006    
     1.889756777886764        0.3056362731236528    
     1.901072686736385        0.3024003481812744    
     1.912388595586006        0.2991998431436920    
     1.923704504435628        0.2960343453838681    
     1.935020413285249        0.2929034473774846    
     1.946336322134870        0.2898067466308470    
     1.957652230984492        0.2867438456099935    
     1.968968139834113        0.2837143516709903    
     1.980284048683735        0.2807178769914033    
     1.991599957533356        0.2777540385029230    
     2.002915866382977        0.2748224578251249    
     2.014231775232599        0.2719227612003522    
     2.025547684082220        0.2690545794297009    
     2.036863592931841        0.2662175478100943    
     2.048179501781462        0.2634113060724233    
     2.059495410631084        0.2606354983207403    
     2.070811319480705        0.2578897729724880    
     2.082127228330326        0.2551737826997442    
     2.093443137179948        0.2524871843714657    
     2.104759046029569        0.2498296389967168    
     2.116074954879191        0.2472008116688614    
     2.127390863728812        0.2446003715107048    
     2.138706772578433        0.2420279916205634    
     2.150022681428055        0.2394833490192505    
     2.161338590277676        0.2369661245979583    
     2.172654499127297        0.2344760030670180    
     2.183970407976918        0.2320126729055254    
     2.195286316826540        0.2295758263118091    
     2.206602225676161        0.2271651591547326    
     2.217918134525783        0.2247803709258059    
     2.229234043375404        0.2224211646920966    
     2.240549952225025        0.2200872470499182    
     2.251865861074647        0.2177783280792874    
     2.263181769924268        0.2154941212991290    
     2.274497678773889        0.2132343436232136    
     2.285813587623511        0.2109987153168146    
     2.297129496473132        0.2087869599540657    
     2.308445405322753        0.2065988043760106    
     2.319761314172375        0.2044339786493240    
     2.331077223021996        0.2022922160256913    
     2.342393131871617        0.2001732529018342    
     2.353709040721239        0.1980768287801640    
     2.365024949570860        0.1960026862300571    
     2.376340858420481        0.1939505708497292    
     2.387656767270103        0.1919202312287023    
     2.398972676119724        0.1899114189108480    
     2.410288584969345        0.1879238883579937    
     2.421604493818967        0.1859573969140850    
     2.432920402668588        0.1840117047698812    
     2.444236311518210        0.1820865749281843    
     2.455552220367831        0.1801817731695840    
     2.466868129217452        0.1782970680187025    
     2.478184038067073        0.1764322307109375    
     2.489499946916695        0.1745870351596815    
     2.500815855766316        0.1727612579240189    
     2.512131764615937        0.1709546781768828    
     2.523447673465559        0.1691670776736593    
     2.534763582315180        0.1673982407212400    
     2.546079491164801        0.1656479541474984    
     2.557395400014423        0.1639160072711908    
     2.568711308864044        0.1622021918722755    
     2.580027217713666        0.1605063021626270    
     2.591343126563287        0.1588281347571538    
     2.602659035412908        0.1571674886452990    
     2.613974944262529        0.1555241651629164    
     2.625290853112151        0.1538979679645254    
     2.636606761961772        0.1522887029959237    
     2.647922670811393        0.1506961784671542    
     2.659238579661015        0.1491202048258261    
     2.670554488510636        0.1475605947307708    
     2.681870397360258        0.1460171630260338    
     2.693186306209879        0.1444897267151999    
     2.704502215059500        0.1429781049360273    
     2.715818123909122        0.1414821189354090    
     2.727134032758743        0.1400015920446376    
     2.738449941608364        0.1385363496549685    
     2.749765850457985        0.1370862191934884    
     2.761081759307607        0.1356510300992739    
     2.772397668157228        0.1342306137998289    
     2.783713577006850        0.1328248036878126    
     2.795029485856471        0.1314334350980410    
     2.806345394706092        0.1300563452847500    
     2.817661303555714        0.1286933733991416    
     2.828977212405335        0.1273443604671796    
     2.840293121254956        0.1260091493676430    
     2.851609030104578        0.1246875848104404    
     2.862924938954199        0.1233795133151708    
     2.874240847803820        0.1220847831899209    
     2.885556756653441        0.1208032445103179    
     2.896872665503063        0.1195347490988089    
     2.908188574352685        0.1182791505041726    
     2.919504483202306        0.1170363039812718    
     2.930820392051927        0.1158060664710273    
     2.942136300901548        0.1145882965806089    
     2.953452209751170        0.1133828545638584    
     2.964768118600791        0.1121896023019240    
     2.976084027450412        0.1110084032841008    
     2.987399936300034        0.1098391225888984    
     2.998715845149655        0.1086816268653083    
     3.010031753999276        0.1075357843142726    
     3.021347662848898        0.1064014646703685    
     3.032663571698519        0.1052785391886832    
     3.043979480548141        0.1041668806345304    
     3.055295389397762        0.1030663632362058    
     3.066611298247383        0.1019768626828700    
     3.077927207097004        0.1008982561086736    
     3.089243115946626        0.9983042207559585E-01
     3.100559024796247        0.9877324055648098E-01
     3.111874933645868        0.9772659291824647E-01
     3.123190842495490        0.9669036190527476E-01
     3.134506751345111        0.9566443162299418E-01
     3.145822660194733        0.9464868752163252E-01
     3.157138569044354        0.9364301638013846E-01
     3.168454477893975        0.9264730629029289E-01
     3.179770386743597        0.9166144664098519E-01
     3.191086295593218        0.9068532810265685E-01
     3.202402204442839        0.8971884261191786E-01
     3.213718113292460        0.8876188335633384E-01
     3.225034022142082        0.8781434475937391E-01
     3.236349930991703        0.8687612246551772E-01
     3.247665839841325        0.8594711332553830E-01
     3.258981748690946        0.8502721538193858E-01
     3.270297657540567        0.8411632785453985E-01
     3.281613566390189        0.8321435112623989E-01
     3.292929475239810        0.8232118672892495E-01
     3.304245384089431        0.8143673732953052E-01
     3.315561292939053        0.8056090671625636E-01
     3.326877201788674        0.7969359978494250E-01
     3.338193110638295        0.7883472252558917E-01
     3.349509019487916        0.7798418200901974E-01
     3.360824928337538        0.7714188637370352E-01
     3.372140837187159        0.7630774481272073E-01
     3.383456746036781        0.7548166756086908E-01
     3.394772654886402        0.7466356588191314E-01
     3.406088563736023        0.7385335205598650E-01
     3.417404472585645        0.7305093936712875E-01
     3.428720381435266        0.7225624209095577E-01
     3.440036290284887        0.7146917548248057E-01
     3.451352199134509        0.7068965576406805E-01
     3.462668107984130        0.6991760011352510E-01
     3.473984016833751        0.6915292665231827E-01
     3.485299925683373        0.6839555443394242E-01
     3.496615834532994        0.6764540343241099E-01
     3.507931743382615        0.6690239453087597E-01
     3.519247652232237        0.6616644951038293E-01
     3.530563561081858        0.6543749103875816E-01
     3.541879469931479        0.6471544265962212E-01
     3.553195378781101        0.6400022878151901E-01
     3.564511287630722        0.6329177466718956E-01
     3.575827196480343        0.6259000642296060E-01
     3.587143105329965        0.6189485098825945E-01
     3.598459014179586        0.6120623612524238E-01
     3.609774923029208        0.6052409040856022E-01
     3.621090831878829        0.5984834321523554E-01
     3.632406740728450        0.5917892471465908E-01
     3.643722649578071        0.5851576585870057E-01
     3.655038558427693        0.5785879837194818E-01
     3.666354467277314        0.5720795474205708E-01
     3.677670376126935        0.5656316821021001E-01
     3.688986284976557        0.5592437276169356E-01
     3.700302193826178        0.5529150311659412E-01
     3.711618102675800        0.5466449472060015E-01
     3.722934011525421        0.5404328373591076E-01
     3.734249920375042        0.5342780703226042E-01
     3.745565829224664        0.5281800217805302E-01
     3.756881738074285        0.5221380743160246E-01
     3.768197646923906        0.5161516173247235E-01
     3.779513555773527        0.5102200469293057E-01
     3.790829464623149        0.5043427658950742E-01
     3.802145373472770        0.4985191835465615E-01
     3.813461282322391        0.4927487156850880E-01
     3.824777191172013        0.4870307845074364E-01
     3.836093100021634        0.4813648185254995E-01
     3.847409008871256        0.4757502524869279E-01
     3.858724917720877        0.4701865272966894E-01
     3.870040826570498        0.4646730899396888E-01
     3.881356735420120        0.4592093934043482E-01
     3.892672644269741        0.4537948966071209E-01
     3.903988553119362        0.4484290643179024E-01
     3.915304461968983        0.4431113670864385E-01
     3.926620370818605        0.4378412811696580E-01
     3.937936279668226        0.4326182884599086E-01
     3.949252188517848        0.4274418764140651E-01
     3.960568097367469        0.4223115379835384E-01
     3.971884006217090        0.4172267715452407E-01
     3.983199915066712        0.4121870808333659E-01
     3.994515823916333        0.4071919748720457E-01
     4.005831732765954        0.4022409679088098E-01
     4.017147641615575        0.3973335793490194E-01
     4.028463550465197        0.3924693336910424E-01
     4.039779459314818        0.3876477604623013E-01
     4.051095368164439        0.3828683941560404E-01
     4.062411277014061        0.3781307741690609E-01
     4.073727185863683        0.3734344447401581E-01
     4.085043094713304        0.3687789548893848E-01
     4.096359003562925        0.3641638583580156E-01
     4.107674912412547        0.3595887135494025E-01
     4.118990821262168        0.3550530834705325E-01
     4.130306730111789        0.3505565356743599E-01
     4.141622638961411        0.3460986422028380E-01
     4.152938547811032        0.3416789795307158E-01
     4.164254456660653        0.3372971285101045E-01
     4.175570365510274        0.3329526743157116E-01
     4.186886274359896        0.3286452063908078E-01
     4.198202183209517        0.3243743183938320E-01
     4.209518092059138        0.3201396081457995E-01
     4.220834000908760        0.3159406775783261E-01
     4.232149909758381        0.3117771326823503E-01
     4.243465818608002        0.3076485834574676E-01
     4.254781727457623        0.3035546438619912E-01
     4.266097636307245        0.2994949317636512E-01
     4.277413545156866        0.2954690688909205E-01
     4.288729454006488        0.2914766807849771E-01
     4.300045362856109        0.2875173967522502E-01
     4.311361271705731        0.2835908498176765E-01
     4.322677180555352        0.2796966766784987E-01
     4.333993089404973        0.2758345176586978E-01
     4.345308998254595        0.2720040166639557E-01
     4.356624907104216        0.2682048211372778E-01
     4.367940815953837        0.2644365820151752E-01
     4.379256724803459        0.2606989536843980E-01
     4.390572633653080        0.2569915939392552E-01
     4.401888542502701        0.2533141639394240E-01
     4.413204451352322        0.2496663281684047E-01
     4.424520360201944        0.2460477543924575E-01
     4.435836269051565        0.2424581136200925E-01
     4.447152177901186        0.2388970800620514E-01
     4.458468086750808        0.2353643310918236E-01
     4.469783995600429        0.2318595472067123E-01
     4.481099904450050        0.2283824119893548E-01
     4.492415813299672        0.2249326120697756E-01
     4.503731722149293        0.2215098370878698E-01
     4.515047630998914        0.2181137796564381E-01
     4.526363539848536        0.2147441353246736E-01
     4.537679448698158        0.2114006025421101E-01
     4.548995357547779        0.2080828826230539E-01
     4.560311266397400        0.2047906797114064E-01
     4.571627175247022        0.2015237007460333E-01
     4.582943084096643        0.1982816554265202E-01
     4.594258992946264        0.1950642561793737E-01
     4.605574901795885        0.1918712181246610E-01
     4.616890810645507        0.1887022590430378E-01
     4.628206719495128        0.1855570993432574E-01
     4.639522628344749        0.1824354620300521E-01
     4.650838537194371        0.1793370726724295E-01
     4.662154446043992        0.1762616593723687E-01
     4.673470354893613        0.1732089527338866E-01
     4.684786263743234        0.1701786858325477E-01
     4.696102172592856        0.1671705941853177E-01
     4.707418081442477        0.1641844157208062E-01
     4.718733990292098        0.1612198907498735E-01
     4.730049899141720        0.1582767619365948E-01
     4.741365807991341        0.1553547742696210E-01
     4.752681716840963        0.1524536750338718E-01
     4.763997625690584        0.1495732137825763E-01
     4.775313534540206        0.1467131423096649E-01
     4.786629443389827        0.1438732146224854E-01
     4.797945352239448        0.1410531869148901E-01
     4.809261261089070        0.1382528175406235E-01
     4.820577169938691        0.1354718669870466E-01
     4.831893078788312        0.1327100978491756E-01
     4.843208987637934        0.1299672748040220E-01
     4.854524896487555        0.1272431645852835E-01
     4.865840805337176        0.1245375359583084E-01
     4.877156714186797        0.1218501596953709E-01
     4.888472623036419        0.1191808085512445E-01
     4.899788531886040        0.1165292572390492E-01
     4.911104440735661        0.1138952824064218E-01
     4.922420349585283        0.1112786626119456E-01
     4.933736258434904        0.1086791783018638E-01
     4.945052167284525        0.1060966117870776E-01
     4.956368076134146        0.1035307472203823E-01
     4.967683984983768        0.1009813705740172E-01
     4.978999893833389        0.9844826961745001E-02
     4.990315802683011        0.9593123389542471E-02
     5.001631711532633        0.9343005470627028E-02
     5.012947620382254        0.9094452508043886E-02
     5.024263529231875        0.8847443975932285E-02
     5.035579438081497        0.8601959517429513E-02
     5.046895346931118        0.8357978942599860E-02
     5.058211255780739        0.8115482226386335E-02
     5.069527164630360        0.7874449506585907E-02
     5.080843073479982        0.7634861081847349E-02
     5.092158982329603        0.7396697409692949E-02
     5.103474891179224        0.7159939104561236E-02
     5.114790800028846        0.6924566935872185E-02
     5.126106708878467        0.6690561827546623E-02
     5.137422617728088        0.6457904937442516E-02
     5.148738526577709        0.6226578644510159E-02
     5.160054435427331        0.5996570887662780E-02
     5.171370344276952        0.5767884630262235E-02
     5.182686253126573        0.5540550575816934E-02
     5.194002161976195        0.5314639143729602E-02
     5.205318070825816        0.5090268610961363E-02
     5.216633979675438        0.4867608290954529E-02
     5.227949888525059        0.4646877117454378E-02
     5.239265797374681        0.4428338706949102E-02
     5.250581706224302        0.4212294113538695E-02
     5.261897615073923        0.3999073344887147E-02
     5.273213523923545        0.3789026466190698E-02
     5.284529432773166        0.3582514877625410E-02
     5.295845341622787        0.3379903148155602E-02
     5.307161250472408        0.3181551633465475E-02
     5.318477159322030        0.2987809993831782E-02
     5.329793068171651        0.2799011650574173E-02
     5.341108977021272        0.2615469168734656E-02
     5.352424885870894        0.2437470521567067E-02
     5.363740794720515        0.2265276173604865E-02
     5.375056703570136        0.2099116909302211E-02
     5.386372612419758        0.1939192330498851E-02
     5.397688521269379        0.1785669946107125E-02
     5.409004430119000        0.1638684779990587E-02
     5.420320338968621        0.1498339426982215E-02
     5.431636247818243        0.1364704491692064E-02
     5.442952156667864        0.1237819349705148E-02
     5.454268065517486        0.1117693175645024E-02
     5.465583974367108        0.1004306187129971E-02
     5.476899883216729        0.8976110576663755E-03
     5.488215792066350        0.7975344547823526E-03
     5.499531700915971        0.7039786618969452E-03
     5.510847609765593        0.6168232430667746E-03
     5.522163518615214        0.5359267080268493E-03
     5.533479427464835        0.4611281293338564E-03
     5.544795336314457        0.3922486510422695E-03
     5.556111245164078        0.3290928033933528E-03
     5.567427154013699        0.2714494881337488E-03
     5.578743062863320        0.2190923962027128E-03
     5.590058971712942        0.1717793939902035E-03
     5.601374880562563        0.1292498741271297E-03
     5.612690789412184        0.9121760220866746E-04
     5.624006698261806        0.5735184592543621E-04
     5.635322607111427        0.2721918600930306E-04
     5.646638515961048         0.000000000000000    
  0  1  2  0  0.000000   #orbital l, n, z, is_polarized, population
 500    0.7383653419325463E-02     3.684443056243406     # npts, delta, cutoff
     0.000000000000000         2.126263312915740    
    0.7383653419325463E-02     2.126085354871703    
    0.1476730683865093E-01     2.125563467910390    
    0.2215096025797639E-01     2.124694283676087    
    0.2953461367730185E-01     2.123478734132065    
    0.3691826709662731E-01     2.121918120815175    
    0.4430192051595278E-01     2.120014109174080    
    0.5168557393527824E-01     2.117768722365497    
    0.5906922735460370E-01     2.115184333884034    
    0.6645288077392916E-01     2.112263659003805    
    0.7383653419325463E-01     2.109009745077280    
    0.8122018761258010E-01     2.105425960755760    
    0.8860384103190555E-01     2.101515984205596    
    0.9598749445123102E-01     2.097283790401833    
    0.1033711478705565         2.092733637587139    
    0.1107548012898819         2.087870052988947    
    0.1181384547092074         2.082697817892441    
    0.1255221081285329         2.077221952170135    
    0.1329057615478583         2.071447698371677    
    0.1402894149671838         2.065380505479216    
    0.1476730683865093         2.059026012434308    
    0.1550567218058347         2.052390031542475    
    0.1624403752251602         2.045478531860482    
    0.1698240286444856         2.038297622669437    
    0.1772076820638111         2.030853537134293    
    0.1845913354831366         2.023152616246597    
    0.1919749889024620         2.015201293143061    
    0.1993586423217875         2.007006077887515    
    0.2067422957411130         1.998573542797667    