<preamble>

<basis_specs>
===============================================================================
Hf                   Z=  72    Mass=  178.49        Charge= 0.17977+309
Lmxo=2 Lmxkb= 3    BasisType=split      Semic=T
L=0  Nsemic=1  Cnfigmx=6
          i=1  nzeta=1  polorb=0  (5s)  (semicore shell)
            splnorm:   0.15000    
               vcte:    40.000    
               rinn:    2.7711    
               qcoe:    0.0000    
               qyuk:    0.0000    
               qwid:   0.10000E-01
                rcs:    3.0759    
            lambdas:    1.0000    
          i=2  nzeta=2  polorb=0  (6s)  (to be polarized non-perturbatively)
            splnorm:   0.15000    
               vcte:    40.000    
               rinn:    6.8425    
               qcoe:    0.0000    
               qyuk:    0.0000    
               qwid:   0.10000E-01
                rcs:    7.5952      5.5125    
            lambdas:    1.0000      1.0000    
L=1  Nsemic=1  Cnfigmx=6
          i=1  nzeta=1  polorb=0  (5p)  (semicore shell)
            splnorm:   0.15000    
               vcte:    40.000    
               rinn:    3.3360    
               qcoe:    0.0000    
               qyuk:    0.0000    
               qwid:   0.10000E-01
                rcs:    3.7067    
            lambdas:    1.0000    
          i=2  nzeta=1  polorb=0  (6p)  (non-perturbative polarization shell)
            splnorm:   0.15000    
               vcte:    40.000    
               rinn:    6.8425    
               qcoe:    0.0000    
               qyuk:    0.0000    
               qwid:   0.10000E-01
                rcs:    7.5952    
            lambdas:    1.0000    
L=2  Nsemic=0  Cnfigmx=5
          i=1  nzeta=2  polorb=0  (5d)
            splnorm:   0.15000    
               vcte:    40.000    
               rinn:    6.4629    
               qcoe:    0.0000    
               qyuk:    0.0000    
               qwid:   0.10000E-01
                rcs:    7.1810      4.9027    
            lambdas:    1.0000      1.0000    
-------------------------------------------------------------------------------
L=0  Nkbl=2  erefs: 0.17977+309 0.17977+309
L=1  Nkbl=2  erefs: 0.17977+309 0.17977+309
L=2  Nkbl=1  erefs: 0.17977+309
L=3  Nkbl=1  erefs: 0.17977+309
===============================================================================
</basis_specs>

<pseudopotential_header>
 Hf pb nrl pcec
 ONCVPSP-3.2017-10-31Hamann's oncvpsp                        
 5s 2.00  r= 1.72/5p 6.00  r= 1.72/5d 2.00  r= 1.72/5f 0.00  r= 2.43/   5s:5p:5d:6s:
</pseudopotential_header>
</preamble>
Hf                            # Symbol
Hf                            # Label
   72                         # Atomic number
     12.0000000000                             # Valence charge
     178.490000000        # Mass 
     139.487412732        # Self energy 
   2   7                      # Lmax for basis, no. of nl orbitals 
   3   8                      # Lmax for projectors, no. of nl KB projectors
# PAOs:__________________________
  0  5  1  0  2.000000   #orbital l, n, z, is_polarized, population
 500    0.6164044554379432E-02     3.075858232635337     # npts, delta, cutoff
     0.000000000000000        0.7830492801254724    
    0.6164044554379432E-02    0.7831014496676773    
    0.1232808910875886E-01    0.7833047852617804    
    0.1849213366313830E-01    0.7836435369458549    
    0.2465617821751773E-01    0.7841174616186890    
    0.3082022277189716E-01    0.7847262267854199    
    0.3698426732627659E-01    0.7854694065467961    
    0.4314831188065602E-01    0.7863464812820786    
    0.4931235643503545E-01    0.7873568378493464    
    0.5547640098941489E-01    0.7884997699501066    
    0.6164044554379432E-01    0.7897744785874240    
    0.6780449009817374E-01    0.7911800725980619    
    0.7396853465255318E-01    0.7927155692519375    
    0.8013257920693262E-01    0.7943798949161026    
    0.8629662376131204E-01    0.7961718857818276    
    0.9246066831569147E-01    0.7980902886539185    
    0.9862471287007091E-01    0.8001337618015808    
    0.1047887574244503        0.8023008758702438    
    0.1109528019788298        0.8045901148537652    
    0.1171168465332092        0.8069998771264455    
    0.1232808910875886        0.8095284765342529    
    0.1294449356419681        0.8121741435446078    
    0.1356089801963475        0.8149350264541082    
    0.1417730247507269        0.8178091926534536    
    0.1479370693051064        0.8207946299488650    
    0.1541011138594858        0.8238892479392146    
    0.1602651584138652        0.8270908794480525    
    0.1664292029682446        0.8303972820096869    
    0.1725932475226241        0.8338061394084152    
    0.1787572920770035        0.8373150632699737    
    0.1849213366313829        0.8409215947042373    
    0.1910853811857624        0.8446232059981360    
    0.1972494257401418        0.8484173023577426    
    0.2034134702945213        0.8523012236984184    
    0.2095775148489007        0.8562722464818717    
    0.2157415594032801        0.8603275855989461    
    0.2219056039576595        0.8644643962968981    
    0.2280696485120390        0.8686797761498913    
    0.2342336930664184        0.8729707670713865    
    0.2403977376207978        0.8773343573670739    
    0.2465617821751773        0.8817674838269295    
    0.2527258267295567        0.8862670338549605    
    0.2588898712839361        0.8908298476351447    
    0.2650539158383156        0.8954527203320307    
    0.2712179603926950        0.9001324043244342    
    0.2773820049470744        0.9048656114706117    
    0.2835460495014538        0.9096490154032585    
    0.2897100940558333        0.9144792538526422    
    0.2958741386102127        0.9193529309961431    
    0.3020381831645921        0.9242666198324241    
    0.3082022277189716        0.9292168645784386    
    0.3143662722733510        0.9342001830874346    
    0.3205303168277305        0.9392130692860756    
    0.3266943613821099        0.9442519956287831    
    0.3328584059364893        0.9493134155673549    
    0.3390224504908688        0.9543937660339072    
    0.3451864950452482        0.9594894699351313    
    0.3513505395996276        0.9645969386558637    
    0.3575145841540071        0.9697125745699120    
    0.3636786287083865        0.9748327735560791    
    0.3698426732627659        0.9799539275172964    
    0.3760067178171453        0.9850724269007708    
    0.3821707623715248        0.9901846632170144    
    0.3883348069259042        0.9952870315556342    
    0.3944988514802836         1.000375933095728    
    0.4006628960346630         1.005447777608752    
    0.4068269405890425         1.010498985951674    
    0.4129909851434219         1.015525992548272    
    0.4191550296978014         1.020525247856415    
    0.4253190742521808         1.025493220819136    
    0.4314831188065602         1.030426401297376    
    0.4376471633609397         1.035321302482224    
    0.4438112079153191         1.040174463284522    
    0.4499752524696985         1.044982450699705    
    0.4561392970240780         1.049741862145759    
    0.4623033415784574         1.054449327772213    
    0.4684673861328368         1.059101512738081    
    0.4746314306872162         1.063695119456720    
    0.4807954752415957         1.068226889805570    
    0.4869595197959751         1.072693607298793    
    0.4931235643503545         1.077092099220851    
    0.4992876089047339         1.081419238719102    
    0.5054516534591134         1.085671946853540    
    0.5116156980134928         1.089847194601818    
    0.5177797425678723         1.093942004817786    
    0.5239437871222516         1.097953454141770    
    0.5301078316766311         1.101878674860905    
    0.5362718762310106         1.105714856717881    
    0.5424359207853899         1.109459248666500    
    0.5485999653397694         1.113109160572513    
    0.5547640098941489         1.116661964858270    
    0.5609280544485283         1.120115098089774    
    0.5670920990029077         1.123466062504779    
    0.5732561435572872         1.126712427480657    
    0.5794201881116666         1.129851830940852    
    0.5855842326660460         1.132881980698725    
    0.5917482772204254         1.135800655737783    
    0.5979123217748049         1.138605707427257    
    0.6040763663291843         1.141295060672128    
    0.6102404108835637         1.143866714996771    
    0.6164044554379432         1.146318745561429    
    0.6225684999923226         1.148649304110878    
    0.6287325445467020         1.150856619854626    
    0.6348965891010815         1.152939000278185    
    0.6410606336554610         1.154894831884943    
    0.6472246782098403         1.156722580868304    
    0.6533887227642198         1.158420793713806    
    0.6595527673185992         1.159988097731056    
    0.6657168118729786         1.161423201515355    
    0.6718808564273581         1.162724895339033    
    0.6780449009817375         1.163892051472514    
    0.6842089455361169         1.164923624435290    
    0.6903729900904964         1.165818651177059    
    0.6965370346448758         1.166576251189282    
    0.7027010791992552         1.167195626547617    
    0.7088651237536346         1.167676061885679    
    0.7150291683080141         1.168016924300687    
    0.7211932128623935         1.168217663191651    
    0.7273572574167729         1.168277810030792    
    0.7335213019711524         1.168196978069004    
    0.7396853465255318         1.167974861976222    
    0.7458493910799112         1.167611237417617    
    0.7520134356342907         1.167105960566645    
    0.7581774801886701         1.166458967556013    
    0.7643415247430495         1.165670273867729    
    0.7705055692974290         1.164739973663415    
    0.7766696138518084         1.163668239056167    
    0.7828336584061878         1.162455319325285    
    0.7889977029605673         1.161101540075283    
    0.7951617475149467         1.159607302340592    
    0.8013257920693261         1.157973081637446    
    0.8074898366237055         1.156199426964523    
    0.8136538811780850         1.154286959753907    
    0.8198179257324644         1.152236372773994    
    0.8259819702868438         1.150048428986038    
    0.8321460148412233         1.147723960356031    
    0.8383100593956028         1.145263866623647    
    0.8444741039499821         1.142669114030038    
    0.8506381485043616         1.139940734006287    
    0.8568021930587411         1.137079821824333    
    0.8629662376131204         1.134087535212218    
    0.8691302821674999         1.130965092935520    
    0.8752943267218793         1.127713773346841    
    0.8814583712762587         1.124334912905277    
    0.8876224158306382         1.120829904667732    
    0.8937864603850176         1.117200196753996    
    0.8999505049393970         1.113447290787590    
    0.9061145494937765         1.109572740760425    
    0.9122785940481559         1.105578150482419    
    0.9184426386025353         1.101465172115164    
    0.9246066831569147         1.097235505284556    
    0.9307707277112942         1.092890895025653    
    0.9369347722656736         1.088433130117329    
    0.9430988168200530         1.083864041405781    
    0.9492628613744325         1.079185500118717    
    0.9554269059288120         1.074399416172030    
    0.9615909504831913         1.069507736470718    
    0.9677549950375708         1.064512443205802    
    0.9739190395919503         1.059415552148961    
    0.9800830841463296         1.054219110946574    
    0.9862471287007091         1.048925197414809    
    0.9924111732550885         1.043535917837370    
    0.9985752178094679         1.038053405267492    
     1.004739262363847         1.032479817835690    
     1.010903306918227         1.026817337064797    
     1.017067351472606         1.021068166193717    
     1.023231396026986         1.015234528511301    
     1.029395440581365         1.009318665701711    
     1.035559485135745         1.003322836202553    
     1.041723529690124        0.9972493135770908    
     1.047887574244503        0.9911003849017805    
     1.054051618798883        0.9848783491702362    
     1.060215663353262        0.9785855157147336    
     1.066379707907642        0.9722242026463540    
     1.072543752462021        0.9657967353148215    
     1.078707797016401        0.9593054447889354    
     1.084871841570780        0.9527526663585403    
     1.091035886125159        0.9461407380588787    
     1.097199930679539        0.9394719992181737    
     1.103363975233918        0.9327487890291375    
     1.109528019788298        0.9259734451452167    
     1.115692064342677        0.9191483023021296    
     1.121856108897057        0.9122756909653836    
     1.128020153451436        0.9053579360042665    
     1.134184198005815        0.8983973553928835    
     1.140348242560195        0.8913962589386455    
     1.146512287114574        0.8843569470386877    
     1.152676331668954        0.8772817094645540    
     1.158840376223333        0.8701728241754739    
     1.165004420777713        0.8630325561605364    
     1.171168465332092        0.8558631563099522    
     1.177332509886472        0.8486668603156753    
     1.183496554440851        0.8414458876014187    
     1.189660598995230        0.8342024402823837    
     1.195824643549610        0.8269387021546200    
     1.201988688103989        0.8196568377141168    
     1.208152732658369        0.8123589912056020    
     1.214316777212748        0.8050472857010651    
     1.220480821767127        0.7977238222080217    
     1.226644866321507        0.7903906788073022    
     1.232808910875886        0.7830499098203411    
     1.238972955430266        0.7757035450057526    
     1.245136999984645        0.7683535887851404    
     1.251301044539025        0.7610020194978947    
     1.257465089093404        0.7536507886847513    
     1.263629133647783        0.7463018203999442    
     1.269793178202163        0.7389570105516268    
     1.275957222756542        0.7316182262703704    
     1.282121267310922        0.7242873053054060    
     1.288285311865301        0.7169660554483366    
     1.294449356419681        0.7096562539840492    
     1.300613400974060        0.7023596471684366    
     1.306777445528440        0.6950779497326620    
     1.312941490082819        0.6878128444135789    
     1.319105534637198        0.6805659815099933    
     1.325269579191578        0.6733389784644103    
     1.331433623745957        0.6661334194698950    
     1.337597668300337        0.6589508551017073    
     1.343761712854716        0.6517928019733256    
     1.349925757409095        0.6446607424165128    
     1.356089801963475        0.6375561241850372    
     1.362253846517854        0.6304803601817180    
     1.368417891072234        0.6234348282083684    
     1.374581935626613        0.6164208707383159    
     1.380745980180993        0.6094397947111446    
     1.386910024735372        0.6024928713492547    
     1.393074069289752        0.5955813359959419    
     1.399238113844131        0.5887063879746139    
     1.405402158398510        0.5818691904687507    
     1.411566202952890        0.5750708704223780    
     1.417730247507269        0.5683125184606053    
     1.423894292061649        0.5615951888299392    
     1.430058336616028        0.5549198993581207    
     1.436222381170408        0.5482876314329973    
     1.442386425724787        0.5416993300002614    
     1.448550470279167        0.5351559035797432    
     1.454714514833546        0.5286582242998134    
     1.460878559387925        0.5222071279497964    
     1.467042603942305        0.5158034140499793    
     1.473206648496684        0.5094478459389205    
     1.479370693051064        0.5031411508779015    
     1.485534737605443        0.4968840201721168    
     1.491698782159822        0.4906771093083809    
     1.497862826714202        0.4845210381091725    
     1.504026871268581        0.4784163909026189    
     1.510190915822961        0.4723637167082220    
     1.516354960377340        0.4663635294381967    
     1.522519004931720        0.4604163081139543    
     1.528683049486099        0.4545224970976416    
     1.534847094040479        0.4486825063385514    
     1.541011138594858        0.4428967116339435    
     1.547175183149237        0.4371654549042185    
     1.553339227703617        0.4314890444822566    
     1.559503272257996        0.4258677554164728    
     1.565667316812376        0.4203018297875457    
     1.571831361366755        0.4147914770386057    
     1.577995405921135        0.4093368743184364    
     1.584159450475514        0.4039381668376431    
     1.590323495029893        0.3985954682375948    
     1.596487539584273        0.3933088609716831    
     1.602651584138652        0.3880783966988515    
     1.608815628693032        0.3829040966891623    
     1.614979673247411        0.3777859522409903    
     1.621143717801790        0.3727239251097211    
     1.627307762356170        0.3677179479477491    
     1.633471806910549        0.3627679247554148    
     1.639635851464929        0.3578737313426834    
     1.645799896019308        0.3530352158015145    
     1.651963940573688        0.3482521989879297    
     1.658127985128067        0.3435244750104243    
     1.664292029682447        0.3388518116541587    
     1.670456074236826        0.3342339509312374    
     1.676620118791206        0.3296706098137948    
     1.682784163345585        0.3251614809912284    
     1.688948207899964        0.3207062334247566    
     1.695112252454344        0.3163045117307786    
     1.701276297008723        0.3119559361456323    
     1.707440341563103        0.3076601029648712    
     1.713604386117482        0.3034165875071920    
     1.719768430671861        0.2992249478424188    
     1.725932475226241        0.2950847286954800    
     1.732096519780620        0.2909954655848921    
     1.738260564335000        0.2869566886859456    
     1.744424608889379        0.2829679262983611    
     1.750588653443759        0.2790287072362555    
     1.756752697998138        0.2751385605285686    
     1.762916742552517        0.2712970151033979    
     1.769080787106897        0.2675035987929525    
     1.775244831661276        0.2637578387177485    
     1.781408876215656        0.2600592617016839    
     1.787572920770035        0.2564073946548395    
     1.793736965324415        0.2528017648536767    
     1.799901009878794        0.2492419000371948    
     1.806065054433174        0.2457273285777344    
     1.812229098987553        0.2422575796514543    
     1.818393143541932        0.2388321834011835    
     1.824557188096312        0.2354506710931059    
     1.830721232650691        0.2321125752655217    
     1.836885277205071        0.2288174298708023    
     1.843049321759450        0.2255647704109280    
     1.849213366313829        0.2223541340663120    
     1.855377410868209        0.2191850598183487    
     1.861541455422588        0.2160570885661640    
     1.867705499976968        0.2129697632374531    
     1.873869544531347        0.2099226288936810    
     1.880033589085727        0.2069152328298294    
     1.886197633640106        0.2039471246690475    
     1.892361678194486        0.2010178564521614    
     1.898525722748865        0.1981269827221823    
     1.904689767303244        0.1952740606042835    
     1.910853811857624        0.1924586498811667    
     1.917017856412003        0.1896803130640445    
     1.923181900966383        0.1869386154592185    
     1.929345945520762        0.1842331252308600    
     1.935509990075142        0.1815634134596845    
     1.941674034629521        0.1789290541978250    
     1.947838079183901        0.1763296245199868    
     1.954002123738280        0.1737647045712609    
     1.960166168292659        0.1712338776114158    
     1.966330212847039        0.1687367300558361    
     1.972494257401418        0.1662728515134054    
     1.978658301955798        0.1638418348213908    
     1.984822346510177        0.1614432760773629    
     1.990986391064556        0.1590767746681519    
     1.997150435618936        0.1567419332963248    
     2.003314480173315        0.1544383580039746    
     2.009478524727695        0.1521656581940319    
     2.015642569282074        0.1499234466489750    
     2.021806613836453        0.1477113395475374    
     2.027970658390833        0.1455289564790324    
     2.034134702945213        0.1433759204556064    
     2.040298747499592        0.1412518579222434    
     2.046462792053971        0.1391563987651405    
     2.052626836608351        0.1370891763180098    
     2.058790881162730        0.1350498273666516    
     2.064954925717110        0.1330379921515882    
     2.071118970271489        0.1310533143693985    
     2.077283014825869        0.1290954411722520    
     2.083447059380248        0.1271640231660108    
     2.089611103934627        0.1252587144066871    
     2.095775148489007        0.1233791723958470    
     2.101939193043386        0.1215250580744925    
     2.108103237597766        0.1196960358157623    
     2.114267282152145        0.1178917734162311    
     2.120431326706524        0.1161119420863866    
     2.126595371260904        0.1143562164398230    
     2.132759415815283        0.1126242744814674    
     2.138923460369663        0.1109157975946433    
     2.145087504924042        0.1092304705274661    
     2.151251549478422        0.1075679813781999    
     2.157415594032801        0.1059280215798231    
     2.163579638587180        0.1043102858836395    
     2.169743683141560        0.1027144723423438    
     2.175907727695940        0.1011402822922794    
     2.182071772250319        0.9958742033503686E-01
     2.188235816804698        0.9805559431831859E-01
     2.194399861359078        0.9654451531629930E-01
     2.200563905913457        0.9505389760943338E-01
     2.206727950467837        0.9358345866368427E-01
     2.212891995022216        0.9213291910923793E-01
     2.219056039576595        0.9070200271871444E-01
     2.225220084130975        0.8929043638506967E-01
     2.231384128685354        0.8789795009897872E-01
     2.237548173239734        0.8652427692588410E-01
     2.243712217794113        0.8516915298257137E-01
     2.249876262348493        0.8383231741359783E-01
     2.256040306902872        0.8251351236729659E-01
     2.262204351457251        0.8121248297154006E-01
     2.268368396011631        0.7992897730916405E-01
     2.274532440566010        0.7866274639325072E-01
     2.280696485120390        0.7741354414215650E-01
     2.286860529674769        0.7618112735433370E-01
     2.293024574229149        0.7496525568296934E-01
     2.299188618783528        0.7376569161043614E-01
     2.305352663337907        0.7258220042266347E-01
     2.311516707892287        0.7141455018332889E-01
     2.317680752446666        0.7026251170795278E-01
     2.323844797001046        0.6912585853786594E-01
     2.330008841555425        0.6800436691413342E-01
     2.336172886109805        0.6689781575138476E-01
     2.342336930664184        0.6580598661158829E-01
     2.348500975218563        0.6472866367777844E-01
     2.354665019772943        0.6366563372775003E-01
     2.360829064327322        0.6261668610772850E-01
     2.366993108881702        0.6158161270602652E-01
     2.373157153436081        0.6056020792669246E-01
     2.379321197990460        0.5955226866319301E-01
     2.385485242544840        0.5855759427207327E-01
     2.391649287099220        0.5757598654665984E-01
     2.397813331653599        0.5660724969079366E-01
     2.403977376207978        0.5565119029260249E-01
     2.410141420762358        0.5470761729836088E-01
     2.416305465316737        0.5377634198632558E-01
     2.422469509871117        0.5285717794068880E-01
     2.428633554425496        0.5194994102557532E-01
     2.434797598979876        0.5105444935915743E-01
     2.440961643534255        0.5017052328781473E-01
     2.447125688088634        0.4929798536035749E-01
     2.453289732643014        0.4843666030237640E-01
     2.459453777197393        0.4758637499065328E-01
     2.465617821751773        0.4674695842778001E-01
     2.471781866306152        0.4591824171673115E-01
     2.477945910860532        0.4510005803562199E-01
     2.484109955414911        0.4429224261257599E-01
     2.490273999969290        0.4349463270067570E-01
     2.496438044523670        0.4270706755317401E-01
     2.502602089078049        0.4192938839861071E-01
     2.508766133632429        0.4116143841619536E-01
     2.514930178186808        0.4040306271128719E-01
     2.521094222741187        0.3965410829099676E-01
     2.527258267295567        0.3891442404003860E-01
     2.533422311849947        0.3818386069650942E-01
     2.539586356404326        0.3746227082796048E-01
     2.545750400958705        0.3674950880756162E-01
     2.551914445513085        0.3604543079043284E-01
     2.558078490067464        0.3534989469018721E-01
     2.564242534621844        0.3466276015545443E-01
     2.570406579176223        0.3398388854668914E-01
     2.576570623730603        0.3331314291308409E-01
     2.582734668284982        0.3265038796967185E-01
     2.588898712839361        0.3199549007462001E-01
     2.595062757393741        0.3134831720654141E-01
     2.601226801948120        0.3070873894208489E-01
     2.607390846502500        0.3007662643364048E-01
     2.613554891056879        0.2945185238723691E-01
     2.619718935611258        0.2883429104064268E-01
     2.625882980165638        0.2822381814148613E-01
     2.632047024720017        0.2762031092566074E-01
     2.638211069274397        0.2702364809585338E-01
     2.644375113828776        0.2643370980025434E-01
     2.650539158383156        0.2585037761149533E-01
     2.656703202937535        0.2527353450559974E-01
     2.662867247491914        0.2470306484121899E-01
     2.669031292046294        0.2413885433900247E-01
     2.675195336600674        0.2358079006112797E-01
     2.681359381155053        0.2302876039109406E-01
     2.687523425709432        0.2248265501350958E-01
     2.693687470263812        0.2194236489416756E-01
     2.699851514818191        0.2140778226026185E-01
     2.706015559372570        0.2087880058074536E-01
     2.712179603926950        0.2035531454696931E-01
     2.718343648481329        0.1983722005332120E-01
     2.724507693035709        0.1932441417812900E-01
     2.730671737590088        0.1881679516471720E-01
     2.736835782144468        0.1831426240260514E-01
     2.742999826698847        0.1781671640894723E-01
     2.749163871253227        0.1732405881004678E-01
     2.755327915807606        0.1683619232306137E-01
     2.761491960361985        0.1635302073788695E-01
     2.767656004916365        0.1587444889919022E-01
     2.773820049470744        0.1540038268861735E-01
     2.779984094025124        0.1493072900717925E-01
     2.786148138579503        0.1446539575773309E-01
     2.792312183133883        0.1400429182929557E-01
     2.798476227688262        0.1354732717254230E-01
     2.804640272242641        0.1309441391279739E-01
     2.810804316797021        0.1264547131384512E-01
     2.816968361351400        0.1220043668823170E-01
     2.823132405905780        0.1175928020298426E-01
     2.829296450460159        0.1132201906949347E-01
     2.835460495014539        0.1088872757010705E-01
     2.841624539568918        0.1045954157903160E-01
     2.847788584123297        0.1003465793034574E-01
     2.853952628677677        0.9614329795074214E-02
     2.860116673232056        0.9198859398654060E-02
     2.866280717786436        0.8788589255235863E-02
     2.872444762340815        0.8383892829505241E-02
     2.878608806895194        0.7985165270024745E-02
     2.884772851449574        0.7592814634455245E-02
     2.890936896003954        0.7207253856599685E-02
     2.897100940558333        0.6828893582918996E-02
     2.903264985112712        0.6458135922752206E-02
     2.909429029667092        0.6095369102102120E-02
     2.915593074221471        0.5740962977306441E-02
     2.921757118775850        0.5395265345806568E-02
     2.927921163330230        0.5058598981826209E-02
     2.934085207884610        0.4731259321656223E-02
     2.940249252438989        0.4413512724083473E-02
     2.946413296993368        0.4105595234656445E-02
     2.952577341547748        0.3807711786830671E-02
     2.958741386102127        0.3520035777855385E-02
     2.964905430656507        0.3242708962000030E-02
     2.971069475210886        0.2975841608014767E-02
     2.977233519765266        0.2719512871224637E-02
     2.983397564319645        0.2473771333054542E-02
     2.989561608874024        0.2238635661606816E-02
     2.995725653428404        0.2014095345488428E-02
     3.001889697982783        0.1800111448298580E-02
     3.008053742537163        0.1596617321067916E-02
     3.014217787091542        0.1403519190913721E-02
     3.020381831645921        0.1220696509486182E-02
     3.026545876200301        0.1048001880949880E-02
     3.032709920754681        0.8852602679236795E-03
     3.038873965309060        0.7322669311051775E-03
     3.045038009863439        0.5887830375075284E-03
     3.051202054417819        0.4545266456801899E-03
     3.057366098972198        0.3291535010399553E-03
     3.063530143526577        0.2122116192905295E-03
     3.069694188080957        0.1030094050480904E-03
     3.075858232635337         0.000000000000000    
  0  6  1  0  2.000000   #orbital l, n, z, is_polarized, population
 500    0.1522080495530337E-01     7.595181672696382     # npts, delta, cutoff
     0.000000000000000        0.4420969041516901    
    0.1522080495530337E-01    0.4422446103225376    