<preamble>

<basis_specs>
===============================================================================
Hg                   Z=  80    Mass=  200.59        Charge= 0.17977+309
Lmxo=2 Lmxkb= 3    BasisType=split      Semic=T
L=0  Nsemic=1  Cnfigmx=6
          i=1  nzeta=1  polorb=0  (5s)  (semicore shell)
            splnorm:   0.15000    
               vcte:    40.000    
               rinn:    2.2198    
               qcoe:    0.0000    
               qyuk:    0.0000    
               qwid:   0.10000E-01
                rcs:    2.4665    
            lambdas:    1.0000    
          i=2  nzeta=2  polorb=0  (6s)  (to be polarized non-perturbatively)
            splnorm:   0.15000    
               vcte:    40.000    
               rinn:    4.8144    
               qcoe:    0.0000    
               qyuk:    0.0000    
               qwid:   0.10000E-01
                rcs:    5.3493      3.6660    
            lambdas:    1.0000      1.0000    
L=1  Nsemic=1  Cnfigmx=6
          i=1  nzeta=1  polorb=0  (5p)  (semicore shell)
            splnorm:   0.15000    
               vcte:    40.000    
               rinn:    2.6170    
               qcoe:    0.0000    
               qyuk:    0.0000    
               qwid:   0.10000E-01
                rcs:    2.9078    
            lambdas:    1.0000    
          i=2  nzeta=1  polorb=0  (6p)  (non-perturbative polarization shell)
            splnorm:   0.15000    
               vcte:    40.000    
               rinn:    4.8192    
               qcoe:    0.0000    
               qyuk:    0.0000    
               qwid:   0.10000E-01
                rcs:    5.3493    
            lambdas:    1.0000    
L=2  Nsemic=0  Cnfigmx=5
          i=1  nzeta=2  polorb=0  (5d)
            splnorm:   0.15000    
               vcte:    40.000    
               rinn:    4.1425    
               qcoe:    0.0000    
               qyuk:    0.0000    
               qwid:   0.10000E-01
                rcs:    4.6028      2.9489    
            lambdas:    1.0000      1.0000    
-------------------------------------------------------------------------------
L=0  Nkbl=2  erefs: 0.17977+309 0.17977+309
L=1  Nkbl=2  erefs: 0.17977+309 0.17977+309
L=2  Nkbl=1  erefs: 0.17977+309
L=3  Nkbl=1  erefs: 0.17977+309
===============================================================================
</basis_specs>

<pseudopotential_header>
 Hg pb nrl pcec
 ONCVPSP-3.2017-10-31Hamann's oncvpsp                        
 5s 2.00  r= 1.60/5p 6.00  r= 1.60/5d10.00  r= 1.46/5f 0.00  r= 1.60/   5s:5p:5d:6s:
</pseudopotential_header>
</preamble>
Hg                            # Symbol
Hg                            # Label
   80                         # Atomic number
     20.0000000000                             # Valence charge
     200.590000000        # Mass 
     439.127579752        # Self energy 
   2   7                      # Lmax for basis, no. of nl orbitals 
   3   7                      # Lmax for projectors, no. of nl KB projectors
# PAOs:__________________________
  0  5  1  0  2.000000   #orbital l, n, z, is_polarized, population
 500    0.4942804087248756E-02     2.466459239537129     # npts, delta, cutoff
     0.000000000000000         1.798348885518322    
    0.4942804087248756E-02     1.798299263434524    
    0.9885608174497513E-02     1.798329717288045    
    0.1482841226174627E-01     1.798380483057445    
    0.1977121634899503E-01     1.798451423204870    
    0.2471402043624378E-01     1.798542381672433    
    0.2965682452349254E-01     1.798653163774610    
    0.3459962861074129E-01     1.798783533448570    
    0.3954243269799005E-01     1.798933212700929    
    0.4448523678523881E-01     1.799101881566228    
    0.4942804087248756E-01     1.799289178240039    
    0.5437084495973632E-01     1.799494699294664    
    0.5931364904698508E-01     1.799717999946617    
    0.6425645313423384E-01     1.799958594363867    
    0.6919925722148258E-01     1.800215956007604    
    0.7414206130873134E-01     1.800489518005892    
    0.7908486539598010E-01     1.800778673557782    
    0.8402766948322886E-01     1.801082776366927    
    0.8897047357047762E-01     1.801401141104093    
    0.9391327765772636E-01     1.801733043897984    
    0.9885608174497512E-01     1.802077722853934    
    0.1037988858322239         1.802434378599997    
    0.1087416899194726         1.802802174860020    
    0.1136844940067214         1.803180239053217    
    0.1186272980939702         1.803567662919826    
    0.1235701021812189         1.803963503172359    
    0.1285129062684677         1.804366782171974    
    0.1334557103557164         1.804776488629473    
    0.1383985144429652         1.805191578330424    
    0.1433413185302139         1.805610974883849    
    0.1482841226174627         1.806033570493980    
    0.1532269267047114         1.806458226754483    
    0.1581697307919602         1.806883775464595    
    0.1631125348792090         1.807309019466584    
    0.1680553389664577         1.807732733503919    
    0.1729981430537065         1.808153665099529    
    0.1779409471409552         1.808570535453522    
    0.1828837512282040         1.808982040359715    
    0.1878265553154527         1.809386851140301    
    0.1927693594027015         1.809783615597998    
    0.1977121634899502         1.810170958984975    
    0.2026549675771990         1.810547484987849    
    0.2075977716644478         1.810911776728076    
    0.2125405757516965         1.811262397776969    
    0.2174833798389453         1.811597893184641    
    0.2224261839261940         1.811916790522118    
    0.2273689880134428         1.812217600935870    
    0.2323117921006916         1.812498820213999    
    0.2372545961879403         1.812758929863319    
    0.2421974002751890         1.812996398196542    
    0.2471402043624378         1.813209681428794    
    0.2520830084496866         1.813397224782662    
    0.2570258125369353         1.813557463600982    
    0.2619686166241841         1.813688824466562    
    0.2669114207114328         1.813789726328030    
    0.2718542247986816         1.813858581631010    
    0.2767970288859303         1.813893797453779    
    0.2817398329731791         1.813893776646627    
    0.2866826370604278         1.813856918974078    
    0.2916254411476766         1.813781622259145    
    0.2965682452349254         1.813666283528806    
    0.3015110493221742         1.813509300159886    
    0.3064538534094229         1.813309071024497    
    0.3113966574966717         1.813063997634239    
    0.3163394615839204         1.812772485282330    
    0.3212822656711691         1.812432944182832    
    0.3262250697584179         1.812043790606196    
    0.3311678738456666         1.811603448010267    
    0.3361106779329154         1.811110348165977    
    0.3410534820201642         1.810562932276894    
    0.3459962861074130         1.809959652091857    
    0.3509390901946617         1.809298971009862    
    0.3558818942819105         1.808579365176469    
    0.3608246983691592         1.807799324570905    
    0.3657675024564080         1.806957354083090    
    0.3707103065436567         1.806051974579870    
    0.3756531106309055         1.805081723959642    
    0.3805959147181542         1.804045158194669    
    0.3855387188054030         1.802940852360331    
    0.3904815228926518         1.801767401650588    
    0.3954243269799005         1.800523422378949    
    0.4003671310671493         1.799207552964233    
    0.4053099351543980         1.797818454900455    
    0.4102527392416468         1.796354813710126    
    0.4151955433288955         1.794815339880344    
    0.4201383474161443         1.793198769780989    
    0.4250811515033930         1.791503866564418    
    0.4300239555906418         1.789729421046018    
    0.4349667596778906         1.787874252565029    
    0.4399095637651393         1.785937209825030    
    0.4448523678523881         1.783917171713543    
    0.4497951719396368         1.781813048100168    
    0.4547379760268856         1.779623780612736    
    0.4596807801141343         1.777348343390942    
    0.4646235842013831         1.774985743816974    
    0.4695663882886318         1.772535023222630    
    0.4745091923758806         1.769995257572491    
    0.4794519964631294         1.767365558122665    
    0.4843948005503781         1.764645072054706    
    0.4893376046376269         1.761832983084297    
    0.4942804087248756         1.758928512044290    
    0.4992232128121244         1.755930917441770    
    0.5041660168993731         1.752839495988772    
    0.5091088209866219         1.749653583106340    
    0.5140516250738707         1.746372553401622    
    0.5189944291611194         1.742995821117724    
    0.5239372332483682         1.739522840556058    
    0.5288800373356169         1.735953106470945    
    0.5338228414228656         1.732286154436280    
    0.5387656455101144         1.728521561184044    
    0.5437084495973632         1.724658944914474    
    0.5486512536846120         1.720697965577814    
    0.5535940577718607         1.716638325127435    
    0.5585368618591094         1.712479767744290    
    0.5634796659463582         1.708222080032580    
    0.5684224700336070         1.703865091186604    
    0.5733652741208557         1.699408673128743    
    0.5783080782081045         1.694852740618561    
    0.5832508822953533         1.690197251333068    
    0.5881936863826019         1.685442205918126    
    0.5931364904698507         1.680587648011111    
    0.5980792945570995         1.675633664234860    
    0.6030220986443483         1.670580384163056    
    0.6079649027315970         1.665427980257121    
    0.6129077068188458         1.660176667774804    
    0.6178505109060946         1.654826704650634    
    0.6227933149933433         1.649378391348379    
    0.6277361190805920         1.643832070685787    
    0.6326789231678408         1.638188127631796    
    0.6376217272550896         1.632446989076499    
    0.6425645313423383         1.626609123574106    
    0.6475073354295870         1.620675041059229    
    0.6524501395168358         1.614645292536796    
    0.6573929436040846         1.608520472816845    
    0.6623357476913333         1.602301237516437    
    0.6672785517785821         1.595988231595061    
    0.6722213558658309         1.589582166848497    
    0.6771641599530797         1.583083794089522    
    0.6821069640403283         1.576493902806815    
    0.6870497681275771         1.569813320680750    
    0.6919925722148259         1.563042913076022    
    0.6969353763020746         1.556183582511610    
    0.7018781803893234         1.549236268108540    
    0.7068209844765722         1.542201945015999    
    0.7117637885638209         1.535081623816322    
    0.7167065926510696         1.527876349909361    
    0.7216493967383184         1.520587202876847    
    0.7265922008255672         1.513215295827273    
    0.7315350049128160         1.505761774721907    
    0.7364778090000647         1.498227817682527    
    0.7414206130873134         1.490614634281485    
    0.7463634171745622         1.482923464814709    
    0.7513062212618109         1.475155579558302    
    0.7562490253490597         1.467312278009363    
    0.7611918294363085         1.459394888111673    
    0.7661346335235573         1.451404765466918    
    0.7710774376108059         1.443343292532127    
    0.7760202416980547         1.435211877803970    
    0.7809630457853035         1.427011954990635    
    0.7859058498725523         1.418744982171951    
    0.7908486539598010         1.410412440948445    
    0.7957914580470498         1.402015835580063    
    0.8007342621342985         1.393556692115242    
    0.8056770662215472         1.385036557511038    
    0.8106198703087960         1.376456998745017    
    0.8155626743960448         1.367819601919648    
    0.8205054784832936         1.359125971359884    
    0.8254482825705423         1.350377728704671    
    0.8303910866577910         1.341576511993088    
    0.8353338907450398         1.332723974745840    
    0.8402766948322886         1.323821785042821    
    0.8452194989195373         1.314871624597455    
    0.8501623030067861         1.305875187828542    
    0.8551051070940349         1.296834180930294    
    0.8600479111812835         1.287750320941303    
    0.8649907152685323         1.278625334813102    
    0.8699335193557811         1.269460958479047    
    0.8748763234430299         1.260258935924203    
    0.8798191275302786         1.251021018256904    
    0.8847619316175274         1.241748962782687    
    0.8897047357047762         1.232444532081274    
    0.8946475397920249         1.223109493087243    
    0.8995903438792736         1.213745616175064    
    0.9045331479665224         1.204354674249138    
    0.9094759520537712         1.194938441839479    
    0.9144187561410199         1.185498694203662    
    0.9193615602282686         1.176037206435665    
    0.9243043643155174         1.166555752582204    
    0.9292471684027662         1.157056104767151    
    0.9341899724900149         1.147540032324607    
    0.9391327765772637         1.138009300941234    
    0.9440755806645125         1.128465671808380    
    0.9490183847517613         1.118910900784528    
    0.9539611888390099         1.109346737568621    
    0.9589039929262587         1.099774924884761    
    0.9638467970135075         1.090197197678806    
    0.9687896011007562         1.080615282327318    
    0.9737324051880050         1.071030895859364    
    0.9786752092752538         1.061445745191583    
    0.9836180133625025         1.051861526377017    
    0.9885608174497512         1.042279923868065    
    0.9935036215370000         1.032702609794003    
    0.9984464256242488         1.023131243253464    
     1.003389229711497         1.013567469622203    
     1.008332033798746         1.004012919876568    
     1.013274837885995        0.9944692099329379    
     1.018217641973244        0.9849379400035186    
     1.023160446060493        0.9754206939687524    
     1.028103250147741        0.9659190387666232    
     1.033046054234990        0.9564345237991587    
     1.037988858322239        0.9469686803563274    
     1.042931662409488        0.9375230210575954    
     1.047874466496736        0.9280990393113318    
     1.052817270583985        0.9186982087922486    
     1.057760074671234        0.9093219829370919    
     1.062702878758483        0.8999717944586785    
     1.067645682845731        0.8906490548784554    
     1.072588486932980        0.8813551540776718    
     1.077531291020229        0.8720914598672784    
     1.082474095107478        0.8628593175766425    
     1.087416899194726        0.8536600496611094    
     1.092359703281975        0.8444949553284883    
     1.097302507369224        0.8353653101844745    
     1.102245311456473        0.8262723658970321    
     1.107188115543721        0.8172173498796799    
     1.112130919630970        0.8082014649937038    
     1.117073723718219        0.7992258892692397    
     1.122016527805468        0.7902917756451500    
     1.126959331892716        0.7814002517276735    
     1.131902135979965        0.7725524195676640    
     1.136844940067214        0.7637493554563526    
     1.141787744154463        0.7549921097395386    
     1.146730548241711        0.7462817066500145    
     1.151673352328960        0.7376191441581057    
     1.156616156416209        0.7290053938401825    
     1.161558960503458        0.7204414007648303    
     1.166501764590707        0.7119280833966316    
     1.171444568677955        0.7034663335172727    
     1.176387372765204        0.6950570161637152    
     1.181330176852453        0.6867009695832943    
     1.186272980939701        0.6783990052053916    
     1.191215785026950        0.6701519076294464    
     1.196158589114199        0.6619604346290806    
     1.201101393201448        0.6538253171719787    
     1.206044197288697        0.6457472594552373    
     1.210987001375945        0.6377269389559586    
     1.215929805463194        0.6297650064966400    
     1.220872609550443        0.6218620863250938    
     1.225815413637692        0.6140187762086367    
     1.230758217724940        0.6062356475420445    
     1.235701021812189        0.5985132454690397    
     1.240643825899438        0.5908520890169630    
     1.245586629986687        0.5832526712441430    
     1.250529434073935        0.5757154593996875    
     1.255472238161184        0.5682408950953485    
     1.260415042248433        0.5608293944889505    
     1.265357846335682        0.5534813484790894    
     1.270300650422930        0.5461971229107456    
     1.275243454510179        0.5389770587912643    
     1.280186258597428        0.5318214725164446    
     1.285129062684677        0.5247306561062942    
     1.290071866771925        0.5177048774500141    
     1.295014670859174        0.5107443805598230    
     1.299957474946423        0.5038493858332669    
     1.304900279033672        0.4970200903235134    
     1.309843083120920        0.4902566680172726    
     1.314785887208169        0.4835592701199671    
     1.319728691295418        0.4769280253476774    
     1.324671495382667        0.4703630402255126    
     1.329614299469915        0.4638643993919709    
     1.334557103557164        0.4574321659089168    
     1.339499907644413        0.4510663815767452    
     1.344442711731662        0.4447670672543559    
     1.349385515818911        0.4385342231835599    
     1.354328319906159        0.4323678293174982    
     1.359271123993408        0.4262678456527215    
     1.364213928080657        0.4202342125645270    
     1.369156732167905        0.4142668511452150    
     1.374099536255154        0.4083656635448682    
     1.379042340342403        0.4025305333142938    
     1.383985144429652        0.3967613257498103    
     1.388927948516901        0.3910578882395275    
     1.393870752604149        0.3854200506108076    
     1.398813556691398        0.3798476254784220    
     1.403756360778647        0.3743404085929274    
     1.408699164865896        0.3688981791881458    
     1.413641968953144        0.3635207003354500    
     1.418584773040393        0.3582077192864902    
     1.423527577127642        0.3529589678196079    
     1.428470381214890        0.3477741625911950    
     1.433413185302139        0.3426530054805573    
     1.438355989389388        0.3375951839330205    
     1.443298793476637        0.3326003713084690    
     1.448241597563886        0.3276682271916878    
     1.453184401651134        0.3227983977630637    
     1.458127205738383        0.3179905161321099    
     1.463070009825632        0.3132442026512902    
     1.468012813912881        0.3085590652523794    
     1.472955618000129        0.3039346997747299    
     1.477898422087378        0.2993706902680213    
     1.482841226174627        0.2948666093880647    
     1.487784030261876        0.2904220186336819    
     1.492726834349124        0.2860364686838852    
     1.497669638436373        0.2817094997074900    
     1.502612442523622        0.2774406416694933    
     1.507555246610871        0.2732294146340136    
     1.512498050698119        0.2690753290729910    
     1.517440854785368        0.2649778861179578    
     1.522383658872617        0.2609365778834748    
     1.527326462959866        0.2569508877431566    
     1.532269267047115        0.2530202906061306    
     1.537212071134363        0.2491442532054838    
     1.542154875221612        0.2453222343520702    
     1.547097679308861        0.2415536852029106    
     1.552040483396109        0.2378380494535366    
     1.556983287483358        0.2341747636452399    
     1.561926091570607        0.2305632575502206    
     1.566868895657856        0.2270029544801793    
     1.571811699745105        0.2234932717736838    
     1.576754503832353        0.2200336205045149    
     1.581697307919602        0.2166234051855549    
     1.586640112006851        0.2132620237832544    
     1.591582916094100        0.2099488678808019    
     1.596525720181348        0.2066833243179809    
     1.601468524268597        0.2034647769884249    
     1.606411328355846        0.2002926087321476    
     1.611354132443094        0.1971662032635994    
     1.616296936530343        0.1940849470402022    
     1.621239740617592        0.1910482308785740    
     1.626182544704841        0.1880554514468127    
     1.631125348792090        0.1851060122725847    
     1.636068152879338        0.1821993234973937    
     1.641010956966587        0.1793348017084828    
     1.645953761053836        0.1765118694658478    
     1.650896565141085        0.1737299549455302    
     1.655839369228333        0.1709884921823938    
     1.660782173315582        0.1682869210967589    
     1.665724977402831        0.1656246875729109    
     1.670667781490080        0.1630012435055459    
     1.675610585577328        0.1604160467298745    
     1.680553389664577        0.1578685610019941    
     1.685496193751826        0.1553582559830603    
     1.690438997839075        0.1528846072206260    
     1.695381801926323        0.1504470961280932    
     1.700324606013572        0.1480452099616477    
     1.705267410100821        0.1456784417956991    
     1.710210214188070        0.1433462904967160    
     1.715153018275319        0.1410482606951427    
     1.720095822362567        0.1387838627559526    
     1.725038626449816        0.1365526127476907    
     1.729981430537065        0.1343540324099733    
     1.734924234624313        0.1321876491198916    
     1.739867038711562        0.1300529958570134    
     1.744809842798811        0.1279496111672461    
     1.749752646886060        0.1258770391255688    
     1.754695450973308        0.1238348292977594    
     1.759638255060557        0.1218225367011265    
     1.764581059147806        0.1198397217643352    
     1.769523863235055        0.1178859502863509    
     1.774466667322304        0.1159607933946212    
     1.779409471409552        0.1140638275025062    
     1.784352275496801        0.1121946342660146    
     1.789295079584050        0.1103528005399017    
     1.794237883671298        0.1085379183331805    
     1.799180687758547        0.1067495847640935    
     1.804123491845796        0.1049874020145830    
     1.809066295933045        0.1032509772843094    
     1.814009100020294        0.1015399227442696    
     1.818951904107542        0.9985385549002028E-01
     1.823894708194791        0.9819239749458358E-01
     1.828837512282040        0.9655517556104659E-01
     1.833780316369289        0.9494182127492520E-01
     1.838723120456537        0.9335197095626431E-01
     1.843665924543786        0.9178526561155706E-01
     1.848608728631035        0.9024135088549554E-01
     1.853551532718284        0.8871987701259471E-01
     1.858494336805532        0.8722049876872605E-01
     1.863437140892781        0.8574287542251692E-01
     1.868379944980030        0.8428667068673817E-01
     1.873322749067279        0.8285155266963701E-01
     1.878265553154527        0.8143719382632597E-01
     1.883208357241776        0.8004327091009897E-01
     1.888151161329025        0.7866946492383181E-01
     1.893093965416274        0.7731546107143107E-01
     1.898036769503523        0.7598094870936652E-01
     1.902979573590771        0.7466562129833401E-01
     1.907922377678020        0.7336917635494407E-01
     1.912865181765269        0.7209131540360901E-01
     1.917807985852517        0.7083174392853854E-01
     1.922750789939766        0.6959017132596652E-01
     1.927693594027015        0.6836631085647168E-01
     1.932636398114264        0.6715987959750834E-01
     1.937579202201512        0.6597059839615374E-01
     1.942522006288761        0.6479819182204842E-01
     1.947464810376010        0.6364238812064139E-01
     1.952407614463259        0.6250291916654062E-01
     1.957350418550508        0.6137952041719152E-01
     1.962293222637756        0.6027193086678821E-01
     1.967236026725005        0.5917989300046517E-01
     1.972178830812254        0.5810315274878396E-01
     1.977121634899502        0.5704145944241889E-01
     1.982064438986751        0.5599456576719755E-01
     1.987007243074000        0.5496222771940417E-01
     1.991950047161249        0.5394420456143998E-01
     1.996892851248498        0.5294025877773509E-01
     2.001835655335746        0.5195015603096938E-01
     2.006778459422995        0.5097366511863983E-01
     2.011721263510244        0.5001055792992137E-01
     2.016664067597493        0.4906060940292935E-01
     2.021606871684742        0.4812359748221422E-01
     2.026549675771990        0.4719930307663287E-01
     2.031492479859239        0.4628751001756159E-01
     2.036435283946488        0.4538800501742522E-01
     2.041378088033736        0.4450057762864649E-01
     2.046320892120985        0.4362502020282766E-01
     2.051263696208234        0.4276112785034301E-01
     2.056206500295483        0.4190869840027064E-01
     2.061149304382731        0.4106753236065432E-01
     2.066092108469980        0.4023743287918606E-01
     2.071034912557229        0.3941820570413688E-01
     2.075977716644477        0.3860965914570268E-01
     2.080920520731727        0.3781160403768968E-01
     2.085863324818975        0.3702385369953974E-01
     2.090806128906224        0.3624622389876161E-01
     2.095748932993473        0.3547853281363356E-01
     2.100691737080721        0.3472060099630696E-01
     2.105634541167970        0.3397225133625250E-01
     2.110577345255219        0.3323330902404600E-01
     2.115520149342468        0.3250360151554071E-01
     2.120462953429716        0.3178295849633474E-01
     2.125405757516965        0.3107121184661559E-01
     2.130348561604214        0.3036819560634553E-01
     2.135291365691462        0.2967374594078476E-01
     2.140234169778712        0.2898770110637919E-01
     2.145176973865960        0.2830990141695794E-01
     2.150119777953209        0.2764018921028395E-01
     2.155062582040458        0.2697840881494092E-01
     2.160005386127707        0.2632440651755078E-01
     2.164948190214955        0.2567803053033193E-01
     2.169890994302204        0.2503913095897786E-01
     2.174833798389453        0.2440755977086292E-01
     2.179776602476701        0.2378317076357763E-01
     2.184719406563950        0.2316581953378261E-01
     2.189662210651199        0.2255536344638399E-01
     2.194605014738448        0.2195166160402458E-01
     2.199547818825696        0.2135457481688663E-01
     2.204490622912946        0.2076396557280818E-01
     2.209433427000194        0.2017969800770531E-01
     2.214376231087443        0.1960163787630095E-01
     2.219319035174692        0.1902965252315094E-01
     2.224261839261940        0.1846361085397547E-01
     2.229204643349189        0.1790338330728046E-01
     2.234147447436438        0.1734884182633939E-01
     2.239090251523687        0.1679985984404189E-01
     2.244033055610935        0.1625631258493664E-01
     2.248975859698184        0.1571807945336445E-01
     2.253918663785433        0.1518505152480262E-01
     2.258861467872681        0.1465714451433231E-01
     2.263804271959931        0.1413431367332222E-01
     2.268747076047179        0.1361656630526645E-01
     2.273689880134428        0.1310396938713984E-01
     2.278632684221677        0.1259665183295141E-01
     2.283575488308925        0.1209480219238633E-01
     2.288518292396174        0.1159866304414168E-01
     2.293461096483423        0.1110852333262407E-01
     2.298403900570672        0.1062470967788874E-01
     2.303346704657920        0.1014757742097752E-01
     2.308289508745169        0.9677501923582821E-02
     2.313232312832418        0.9214870447186217E-02
     2.318175116919666        0.8760074793728976E-02
     2.323117921006915        0.8313504789913044E-02
     2.328060725094164        0.7875542630603598E-02
     2.333003529181413        0.7446558054632357E-02
     2.337946333268662        0.7026904301202066E-02
     2.342889137355911        0.6616914781753022E-02
     2.347831941443159        0.6216900396457432E-02
     2.352774745530408        0.5827147423702445E-02
     2.357717549617657        0.5447915913086107E-02
     2.362660353704905        0.5079438516184949E-02
     2.367603157792154        0.4721919693815296E-02
     2.372545961879403        0.4375535243060031E-02
     2.377488765966652        0.4040432091512120E-02
     2.382431570053900        0.3716728309633321E-02
     2.387374374141149        0.3404513294519726E-02
     2.392317178228398        0.3103848079193528E-02
     2.397259982315647        0.2814765720256563E-02
     2.402202786402896        0.2537271712246142E-02
     2.407145590490144        0.2271344367621782E-02
     2.412088394577393        0.2016935083835509E-02
     2.417031198664642        0.1773968387665537E-02
     2.421974002751891        0.1542341590701254E-02
     2.426916806839139        0.1321923785852733E-02
     2.431859610926388        0.1112553713573090E-02
     2.436802415013637        0.9140356125902304E-03
     2.441745219100885        0.7261312460244275E-03
     2.446688023188134        0.5485439961821365E-03
     2.451630827275383        0.3808842928533727E-03
     2.456573631362632        0.2225817625457080E-03
     2.461516435449881        0.7257919470441613E-04
     2.466459239537129         0.000000000000000    
  0  6  1  0  2.000000   #orbital l, n, z, is_polarized, population
 500    0.1072000189357952E-01     5.349280944896180     # npts, delta, cutoff
     0.000000000000000         1.650843700682412    
    0.1072000189357952E-01     1.650588021669258    