<preamble>

<basis_specs>
===============================================================================
I                    Z=  53    Mass=  126.90        Charge= 0.17977+309
Lmxo=2 Lmxkb= 3    BasisType=split      Semic=T
L=0  Nsemic=0  Cnfigmx=5
          i=1  nzeta=2  polorb=0  (5s)
            splnorm:   0.15000    
               vcte:    40.000    
               rinn:    4.5063    
               qcoe:    0.0000    
               qyuk:    0.0000    
               qwid:   0.10000E-01
                rcs:    5.0070      3.4519    
            lambdas:    1.0000      1.0000    
L=1  Nsemic=0  Cnfigmx=5
          i=1  nzeta=2  polorb=0  (5p)  (to be polarized non-perturbatively)
            splnorm:   0.15000    
               vcte:    40.000    
               rinn:    5.7081    
               qcoe:    0.0000    
               qyuk:    0.0000    
               qwid:   0.10000E-01
                rcs:    6.3424      4.4263    
            lambdas:    1.0000      1.0000    
L=2  Nsemic=1  Cnfigmx=5
          i=1  nzeta=1  polorb=0  (4d)  (semicore shell)
            splnorm:   0.15000    
               vcte:    40.000    
               rinn:    2.6065    
               qcoe:    0.0000    
               qyuk:    0.0000    
               qwid:   0.10000E-01
                rcs:    2.8962    
            lambdas:    1.0000    
          i=2  nzeta=1  polorb=0  (5d)  (non-perturbative polarization shell)
            splnorm:   0.15000    
               vcte:    40.000    
               rinn:    5.7139    
               qcoe:    0.0000    
               qyuk:    0.0000    
               qwid:   0.10000E-01
                rcs:    6.3424    
            lambdas:    1.0000    
-------------------------------------------------------------------------------
L=0  Nkbl=1  erefs: 0.17977+309
L=1  Nkbl=1  erefs: 0.17977+309
L=2  Nkbl=2  erefs: 0.17977+309 0.17977+309
L=3  Nkbl=1  erefs: 0.17977+309
===============================================================================
</basis_specs>

<pseudopotential_header>
 I  pb nrl pcec
 ONCVPSP-4.2023-03-20Hamann's oncvpsp                        
 5s 2.00  r= 1.95/5p 5.00  r= 1.86/4d10.00  r= 1.86/4f 0.00  r= 1.86/   4d:5s:5p:
</pseudopotential_header>
</preamble>
I                             # Symbol
I                             # Label
   53                         # Atomic number
     17.0000000000                             # Valence charge
     126.900000000        # Mass 
     253.495055075        # Self energy 
   2   6                      # Lmax for basis, no. of nl orbitals 
   3   8                      # Lmax for projectors, no. of nl KB projectors
# PAOs:__________________________
  0  5  1  0  2.000000   #orbital l, n, z, is_polarized, population
 500    0.1003404469524502E-01     5.006988302927265     # npts, delta, cutoff
     0.000000000000000        0.7176139154144975E-01
    0.1003404469524502E-01    0.7184446244806129E-01
    0.2006808939049004E-01    0.7209962548551506E-01
    0.3010213408573506E-01    0.7252443202510718E-01
    0.4013617878098008E-01    0.7311818341039064E-01
    0.5017022347622510E-01    0.7387990543063862E-01
    0.6020426817147012E-01    0.7480835126667516E-01
    0.7023831286671514E-01    0.7590200564054171E-01
    0.8027235756196016E-01    0.7715908989796000E-01
    0.9030640225720518E-01    0.7857756797396341E-01
    0.1003404469524502        0.8015515321092247E-01
    0.1103744916476952        0.8188931599874343E-01
    0.1204085363429402        0.8377729220462697E-01
    0.1304425810381853        0.8581609235682781E-01
    0.1404766257334303        0.8800251154385819E-01
    0.1505106704286753        0.9033313998769384E-01
    0.1605447151239203        0.9280437424680822E-01
    0.1705787598191653        0.9541242900231602E-01
    0.1806128045144104        0.9815334937816765E-01
    0.1906468492096554        0.1010230237442006    
    0.2006808939049004        0.1040171969489542    
    0.2107149386001454        0.1071314839274776    
    0.2207489832953904        0.1103613836279307    
    0.2307830279906355        0.1137022931995923    
    0.2408170726858805        0.1171495223839532    
    0.2508511173811255        0.1206983080499012    
    0.2608851620763705        0.1243438288135792    
    0.2709192067716155        0.1280812196833461    
    0.2809532514668606        0.1319055866703707    
    0.2909872961621056        0.1358120213057551    
    0.3010213408573506        0.1397956150057061    
    0.3110553855525956        0.1438514732271535    
    0.3210894302478406        0.1479747293573422    
    0.3311234749430857        0.1521605582823026    
    0.3411575196383307        0.1564041895807181    
    0.3511915643335757        0.1607009202915561    
    0.3612256090288207        0.1650461272058949    
    0.3712596537240658        0.1694352786356698    
    0.3812936984193108        0.1738639456145370    
    0.3913277431145558        0.1783278124887342    
    0.4013617878098008        0.1828226868586793    
    0.4113958325050459        0.1873445088350458    
    0.4214298772002908        0.1918893595762592    
    0.4314639218955358        0.1964534690776246    
    0.4414979665907809        0.2010332231857650    
    0.4515320112860259        0.2056251698155501    
    0.4615660559812709        0.2102260243503510    
    0.4716001006765159        0.2148326742101182    
    0.4816341453717610        0.2194421825755703    
    0.4916681900670060        0.2240517912605405    
    0.5017022347622511        0.2286589227283663    
    0.5117362794574960        0.2332611812520035    
    0.5217703241527410        0.2378563532213769    
    0.5318043688479861        0.2424424066052326    
    0.5418384135432310        0.2470174895784944    
    0.5518724582384761        0.2515799283297964    
    0.5619065029337211        0.2561282240674366    
    0.5719405476289662        0.2606610492455035    
    0.5819745923242112        0.2651772430352780    
    0.5920086370194562        0.2696758060702988    
    0.6020426817147012        0.2741558944965505    
    0.6120767264099463        0.2786168133622267    
    0.6221107711051912        0.2830580093842728    
    0.6321448158004362        0.2874790631315571    
    0.6421788604956813        0.2918796806669012    
    0.6522129051909263        0.2962596846924430    
    0.6622469498861714        0.3006190052448076    
    0.6722809945814163        0.3049576699883295    
    0.6823150392766614        0.3092757941561518    
    0.6923490839719064        0.3135735701903572    
    0.7023831286671514        0.3178512571333366    
    0.7124171733623964        0.3221091698235188    
    0.7224512180576415        0.3263476679491064    
    0.7324852627528865        0.3305671450138911    
    0.7425193074481315        0.3347680172692722    
    0.7525533521433765        0.3389507126665125    
    0.7625873968386215        0.3431156598828284    
    0.7726214415338666        0.3472632774743388    
    0.7826554862291115        0.3513939632079787    
    0.7926895309243566        0.3555080836234211    
    0.8027235756196016        0.3596059638746921    
    0.8127576203148467        0.3636878778996339    
    0.8227916650100917        0.3677540389635880    
    0.8328257097053366        0.3718045906217094    
    0.8428597544005817        0.3758395981421685    
    0.8528937990958267        0.3798590404300953    
    0.8629278437910717        0.3838628024897138    
    0.8729618884863167        0.3878506684592764    
    0.8829959331815618        0.3918223152507156    
    0.8930299778768068        0.3957773068228904    
    0.9030640225720519        0.3997150891142492    
    0.9130980672672968        0.4036349856575273    
    0.9231321119625419        0.4075361938958548    
    0.9331661566577869        0.4114177822162368    
    0.9432002013530318        0.4152786877130175    
    0.9532342460482769        0.4191177146904685    
    0.9632682907435219        0.4229335339101162    
    0.9733023354387670        0.4267246825850074    
    0.9833363801340120        0.4304895651195847    
    0.9933704248292570        0.4342264545903586    
     1.003404469524502        0.4379334949591681    
     1.013438514219747        0.4416087040075270    
     1.023472558914992        0.4452499769769296    
     1.033506603610237        0.4488550908973201    
     1.043540648305482        0.4524217095822990    
     1.053574693000727        0.4559473892667278    
     1.063608737695972        0.4594295848598544    
     1.073642782391217        0.4628656567838764    
     1.083676827086462        0.4662528783654883    
     1.093710871781707        0.4695884437456123    
     1.103744916476952        0.4728694762698907    
     1.113778961172197        0.4760930373210085    
     1.123813005867442        0.4792561355513468    
     1.133847050562687        0.4823557364734016    
     1.143881095257932        0.4853887723632856    
     1.153915139953177        0.4883521524321787    
     1.163949184648422        0.4912427732185549    
     1.173983229343667        0.4940575291539558    
     1.184017274038912        0.4967933232541367    
     1.194051318734157        0.4994470778868941    
     1.204085363429402        0.5020157455681546    
     1.214119408124647        0.5044963197373644    
     1.224153452819893        0.5068858454641292    
     1.234187497515137        0.5091814300379330    
     1.244221542210382        0.5113802533941574    
     1.254255586905628        0.5134795783298126    
     1.264289631600872        0.5154767604642589    
     1.274323676296118        0.5173692579010822    
     1.284357720991363        0.5191546405488300    
     1.294391765686608        0.5208305990603523    
     1.304425810381853        0.5223949533521867    
     1.314459855077098        0.5238456606674067    
     1.324493899772343        0.5251808231478080    
     1.334527944467588        0.5263986948835032    
     1.344561989162833        0.5274976884107427    
     1.354596033858078        0.5284763806309987    
     1.364630078553323        0.5293335181275050    
     1.374664123248568        0.5300680218581844    
     1.384698167943813        0.5306789912066705    
     1.394732212639058        0.5311657073761012    
     1.404766257334303        0.5315276361138129    
     1.414800302029548        0.5317644297575334    
     1.424834346724793        0.5318759285972605    
     1.434868391420038        0.5318621615501252    
     1.444902436115283        0.5317233461480185    
     1.454936480810528        0.5314598878418706    
     1.464970525505773        0.5310723786287141    
     1.475004570201018        0.5305615950109872    
     1.485038614896263        0.5299284953004972    
     1.495072659591508        0.5291742162823642    
     1.505106704286753        0.5283000692568964    
     1.515140748981998        0.5273075354802115    
     1.525174793677243        0.5261982610270232    
     1.535208838372488        0.5249740511011158    
     1.545242883067733        0.5236368638220024    
     1.555276927762978        0.5221888035177232    
     1.565310972458223        0.5206321135561893    
     1.575345017153468        0.5189691690202267    
     1.585379061848713        0.5172024684992917    
     1.595413106543958        0.5153346247759080    
     1.605447151239203        0.5133683576940300    
     1.615481195934448        0.5113064846252708    
     1.625515240629693        0.5091519113023760    
     1.635549285324938        0.5069076224597521    
     1.645583330020183        0.5045766723232417    
     1.655617374715428        0.5021621749914147    
     1.665651419410673        0.4996672947511179    
     1.675685464105918        0.4970952363699463    
     1.685719508801163        0.4944492354077858    
     1.695753553496408        0.4917325485896987    
     1.705787598191653        0.4889484442811200    
     1.715821642886898        0.4861001931060244    
     1.725855687582143        0.4831910587475894    
     1.735889732277389        0.4802242889695133    
     1.745923776972633        0.4772031068950699    
     1.755957821667879        0.4741307025792896    
     1.765991866363124        0.4710102249081415    
     1.776025911058368        0.4678447738565822    
     1.786059955753614        0.4646373931355361    
     1.796094000448859        0.4613910632558618    
     1.806128045144104        0.4581086950349055    
     1.816162089839349        0.4547931235691801    
     1.826196134534594        0.4514471026937116    
     1.836230179229839        0.4480732999497902    
     1.846264223925084        0.4446742920692695    
     1.856298268620329        0.4412525609746618    
     1.866332313315574        0.4378104904006489    
     1.876366358010819        0.4343503630351856    
     1.886400402706064        0.4308743581171843    
     1.896434447401309        0.4273845496859779    
     1.906468492096554        0.4238829054366158    
     1.916502536791799        0.4203712861248057    
     1.926536581487044        0.4168514453735567    
     1.936570626182289        0.4133250303707757    
     1.946604670877534        0.4097935825523043    
     1.956638715572779        0.4062585388991466    
     1.966672760268024        0.4027212488032797    
     1.976706804963269        0.3991830008531435    
     1.986740849658514        0.3956450362740340    
     1.996774894353759        0.3921085485195853    
     2.006808939049004        0.3885746847050901    
     2.016842983744249        0.3850445470583276    
     2.026877028439494        0.3815191941827934    
     2.036911073134739        0.3779996423306330    
     2.046945117829984        0.3744868666411102    
     2.056979162525229        0.3709818023490525    
     2.067013207220474        0.3674853459640328    
     2.077047251915719        0.3639983564204138    
     2.087081296610964        0.3605216561990589    
     2.097115341306209        0.3570560324211295    
     2.107149386001454        0.3536022379145321    
     2.117183430696699        0.3501609922535874    
     2.127217475391944        0.3467329827723131    
     2.137251520087189        0.3433188655520119    
     2.147285564782434        0.3399192663835889    
     2.157319609477679        0.3365347817050973    
     2.167353654172924        0.3331659795150485    
     2.177387698868170        0.3298134002620197    
     2.187421743563414        0.3264775577109869    
     2.197455788258659        0.3231589397869230    
     2.207489832953904        0.3198580093961466    
     2.217523877649149        0.3165752052258464    
     2.227557922344395        0.3133109425223589    
     2.237591967039640        0.3100656138485812    
     2.247626011734885        0.3068395898209924    
     2.257660056430129        0.3036332198267878    
     2.267694101125374        0.3004468327215140    
     2.277728145820620        0.2972807375076910    
     2.287762190515865        0.2941352239948478    
     2.297796235211110        0.2910105634413704    
     2.307830279906355        0.2879070091786285    
     2.317864324601600        0.2848247972177840    
     2.327898369296845        0.2817641468396706    
     2.337932413992090        0.2787252611681447    
     2.347966458687335        0.2757083277273094    
     2.358000503382580        0.2727135189830221    
     2.368034548077825        0.2697409928690837    
     2.378068592773070        0.2667908932983423    
     2.388102637468315        0.2638633506592434    
     2.398136682163560        0.2609584822981346    
     2.408170726858805        0.2580763929876384    
     2.418204771554050        0.2552171753814551    
     2.428238816249295        0.2523809104559541    
     2.438272860944540        0.2495676679388924    
     2.448306905639785        0.2467775067255167    
     2.458340950335030        0.2440104752824360    
     2.468374995030275        0.2412666120396038    
     2.478409039725520        0.2385459457706109    
     2.488443084420765        0.2358484959616511    
     2.498477129116010        0.2331742731694610    
     2.508511173811255        0.2305232793684984    
     2.518545218506500        0.2278955082876475    
     2.528579263201745        0.2252909457367241    
     2.538613307896990        0.2227095699230373    
     2.548647352592235        0.2201513517582800    
     2.558681397287480        0.2176162551560159    
     2.568715441982725        0.2151042373199948    
     2.578749486677970        0.2126152490235487    
     2.588783531373215        0.2101492348802933    
     2.598817576068460        0.2077061336063961    
     2.608851620763705        0.2052858782746250    
     2.618885665458950        0.2028883965604016    
     2.628919710154195        0.2005136109800665    
     2.638953754849440        0.1981614391215806    
     2.648987799544686        0.1958317938678792    
     2.659021844239930        0.1935245836130617    
     2.669055888935175        0.1912397124716318    
     2.679089933630420        0.1889770804809653    
     2.689123978325665        0.1867365837972101    
     2.699158023020910        0.1845181148847937    
     2.709192067716156        0.1823215626997168    
     2.719226112411401        0.1801468128668159    
     2.729260157106645        0.1779937478511537    
     2.739294201801890        0.1758622471237213    
     2.749328246497135        0.1737521873216006    
     2.759362291192381        0.1716634424027397    
     2.769396335887626        0.1695958837955172    
     2.779430380582871        0.1675493805432382    
     2.789464425278116        0.1655237994436907    
     2.799498469973360        0.1635190051839260    
     2.809532514668605        0.1615348604703939    
     2.819566559363851        0.1595712261545819    
     2.829600604059096        0.1576279613542777    
     2.839634648754341        0.1557049235705758    
     2.849668693449586        0.1538019688007606    
     2.859702738144831        0.1519189516472159    
     2.869736782840076        0.1500557254224371    
     2.879770827535321        0.1482121422502773    
     2.889804872230566        0.1463880531635930    
     2.899838916925811        0.1445833081982096    
     2.909872961621056        0.1427977564825325    
     2.919907006316301        0.1410312463315490    
     2.929941051011546        0.1392836253195421    
     2.939975095706791        0.1375547403449796    
     2.950009140402036        0.1358444377820991    
     2.960043185097281        0.1341525634966724    
     2.970077229792526        0.1324789629137440    
     2.980111274487771        0.1308234809654565    
     2.990145319183016        0.1291859624894871    
     3.000179363878261        0.1275662520675316    
     3.010213408573506        0.1259641940360401    
     3.020247453268751        0.1243796326400948    
     3.030281497963996        0.1228124120942688    
     3.040315542659241        0.1212623766116266    
     3.050349587354486        0.1197293704581091    
     3.060383632049731        0.1182132380064755    
     3.070417676744976        0.1167138237836826    
     3.080451721440221        0.1152309725168359    
     3.090485766135466        0.1137645291774305    
     3.100519810830711        0.1123143390236834    
     3.110553855525956        0.1108802476410504    
     3.120587900221201        0.1094621009809956    
     3.130621944916446        0.1080597453980661    
     3.140655989611691        0.1066730276853241    
     3.150690034306936        0.1053017951081970    
     3.160724079002181        0.1039458954367967    
     3.170758123697426        0.1026051769767586    
     3.180792168392671        0.1012794885986448    
     3.190826213087917        0.9996867976596759E-01
     3.200860257783162        0.9867260056187721E-01
     3.210894302478406        0.9739110171455713E-01
     3.220928347173651        0.9612403462137011E-01
     3.230962391868896        0.9487125137179990E-01
     3.240996436564142        0.9363260476923131E-01
     3.251030481259387        0.9240794835160254E-01
     3.261064525954632        0.9119713641097450E-01
     3.271098570649877        0.9000002401205137E-01
     3.281132615345121        0.8881646700969204E-01
     3.291166660040367        0.8764632206544204E-01
     3.301200704735612        0.8648944666312201E-01
     3.311234749430857        0.8534569912351096E-01
     3.321268794126102        0.8421493861815431E-01
     3.331302838821347        0.8309702518231896E-01
     3.341336883516592        0.8199181972713135E-01
     3.351370928211837        0.8089918405093591E-01
     3.361404972907082        0.7981898084989300E-01
     3.371439017602327        0.7875107372783974E-01
     3.381473062297572        0.7769532720544421E-01
     3.391507106992817        0.7665160672868541E-01
     3.401541151688062        0.7561977867667564E-01
     3.411575196383307        0.7459971036884933E-01
     3.421609241078552        0.7359127007154231E-01
     3.431643285773797        0.7259432700398714E-01
     3.441677330469042        0.7160875134374084E-01
     3.451711375164287        0.7063441423157006E-01
     3.461745419859532        0.6967118777581154E-01
     3.471779464554777        0.6871894505622717E-01
     3.481813509250022        0.6777756012737415E-01
     3.491847553945267        0.6684690802150554E-01
     3.501881598640512        0.6592686475102320E-01
     3.511915643335757        0.6501730731049619E-01
     3.521949688031002        0.6411811367826126E-01
     3.531983732726247        0.6322916281762397E-01
     3.542017777421492        0.6235033467767311E-01
     3.552051822116737        0.6148151019372523E-01
     3.562085866811982        0.6062257128741110E-01
     3.572119911507227        0.5977340086642062E-01
     3.582153956202472        0.5893388282391756E-01
     3.592188000897717        0.5810390203763751E-01
     3.602222045592962        0.5728334436868237E-01
     3.612256090288207        0.5647209666002245E-01
     3.622290134983452        0.5567004673471758E-01
     3.632324179678697        0.5487708339386894E-01
     3.642358224373942        0.5409309641431363E-01
     3.652392269069187        0.5331797654606889E-01
     3.662426313764432        0.5255161550954039E-01
     3.672460358459678        0.5179390599250222E-01
     3.682494403154922        0.5104474164685673E-01
     3.692528447850167        0.5030401708518561E-01
     3.702562492545412        0.4957162787710123E-01
     3.712596537240657        0.4884747054540345E-01
     3.722630581935903        0.4813144256205409E-01
     3.732664626631148        0.4742344234397524E-01
     3.742698671326393        0.4672336924867732E-01
     3.752732716021637        0.4603112356972814E-01
     3.762766760716882        0.4534660653206732E-01
     3.772800805412127        0.4466972028717290E-01
     3.782834850107373        0.4400036790808903E-01
     3.792868894802618        0.4333845338431948E-01
     3.802902939497863        0.4268388161659271E-01
     3.812936984193108        0.4203655841150615E-01
     3.822971028888352        0.4139639047605543E-01
     3.833005073583598        0.4076328541205176E-01
     3.843039118278843        0.4013715171043662E-01
     3.853073162974088        0.3951789874549645E-01
     3.863107207669333        0.3890543676898228E-01
     3.873141252364578        0.3829967690414142E-01
     3.883175297059823        0.3770053113966479E-01
     3.893209341755068        0.3710791232355265E-01
     3.903243386450313        0.3652173415690659E-01
     3.913277431145558        0.3594191118765024E-01
     3.923311475840803        0.3536835880418144E-01
     3.933345520536048        0.3480099322896354E-01
     3.943379565231293        0.3423973151205748E-01
     3.953413609926538        0.3368449152459754E-01
     3.963447654621783        0.3313519195221633E-01
     3.973481699317028        0.3259175228842147E-01
     3.983515744012273        0.3205409282792775E-01
     3.993549788707518        0.3152213465994813E-01
     4.003583833402763        0.3099579966144642E-01
     4.013617878098009        0.3047501049035515E-01
     4.023651922793253        0.2995969057876153E-01
     4.033685967488498        0.2944976412606333E-01
     4.043720012183743        0.2894515609209992E-01
     4.053754056878988        0.2844579219025783E-01
     4.063788101574233        0.2795159888055696E-01
     4.073822146269478        0.2746250336271774E-01
     4.083856190964723        0.2697843356921093E-01
     4.093890235659968        0.2649931815829563E-01
     4.103924280355213        0.2602508650704466E-01
     4.113958325050458        0.2555566870436075E-01
     4.123992369745704        0.2509099554398585E-01
     4.134026414440949        0.2463099851750527E-01
     4.144060459136194        0.2417560980734813E-01
     4.154094503831439        0.2372476227978736E-01
     4.164128548526683        0.2327838947793958E-01
     4.174162593221928        0.2283642561476800E-01
     4.184196637917173        0.2239880556608856E-01
     4.194230682612418        0.2196546486358342E-01
     4.204264727307663        0.2153633968781929E-01
     4.214298772002908        0.2111136686127665E-01
     4.224332816698153        0.2069048384138840E-01
     4.234366861393399        0.2027362871359013E-01
     4.244400906088644        0.1986074018438394E-01
     4.254434950783889        0.1945175757441618E-01
     4.264468995479134        0.1904662081157105E-01
     4.274503040174379        0.1864527042408099E-01
     4.284537084869624        0.1824764753365473E-01
     4.294571129564869        0.1785369384862544E-01
     4.304605174260113        0.1746335165711734E-01
     4.314639218955358        0.1707656382023525E-01
     4.324673263650603        0.1669327376527519E-01
     4.334707308345848        0.1631342547895841E-01
     4.344741353041094        0.1593696350068925E-01
     4.354775397736339        0.1556383291583795E-01
     4.364809442431584        0.1519397934904941E-01
     4.374843487126829        0.1482734895757705E-01
     4.384877531822074        0.1446388842464558E-01
     4.394911576517319        0.1410354495284028E-01
     4.404945621212564        0.1374626625752534E-01
     4.414979665907809        0.1339200056029099E-01
     4.425013710603054        0.1304069658243037E-01
     4.435047755298299        0.1269230353844729E-01
     4.445081799993544        0.1234677112959316E-01
     4.455115844688789        0.1200404953743719E-01
     4.465149889384034        0.1166408941746689E-01
     4.475183934079279        0.1132684189272140E-01
     4.485217978774524        0.1099225854745722E-01
     4.495252023469769        0.1066029142084617E-01
     4.505286068165014        0.1033089300070834E-01
     4.515320112860259        0.1000401621727670E-01
     4.525354157555504        0.9679614436997037E-02
     4.535388202250749        0.9357641456432130E-02
     4.545422246945994        0.9038051509961795E-02
     4.555456291641240        0.8720799623128361E-02
     4.565490336336484        0.8405844231998716E-02
     4.575524381031729        0.8093155306671283E-02
     4.585558425726974        0.7782728282701604E-02
     4.595592470422219        0.7474599839643501E-02
     4.605626515117464        0.7168860808982572E-02
     4.615660559812709        0.6865663518080023E-02
     4.625694604507954        0.6565223144066432E-02
     4.635728649203199        0.6267814024633218E-02
     4.645762693898444        0.5973762370485762E-02
     4.655796738593690        0.5683436797397070E-02
     4.665830783288935        0.5397237842985970E-02
     4.675864827984180        0.5115587329276885E-02
     4.685898872679425        0.4838918157099373E-02
     4.695932917374670        0.4567664899112819E-02
     4.705966962069914        0.4302255395831522E-02
     4.716001006765159        0.4043103444870087E-02
     4.726035051460404        0.3790602596869812E-02
     4.736069096155649        0.3545121022298777E-02
     4.746103140850894        0.3306997383512309E-02
     4.756137185546139        0.3076537630054674E-02
     4.766171230241385        0.2854012627753444E-02
     4.776205274936630        0.2639656530572909E-02
     4.786239319631875        0.2433665806275193E-02
     4.796273364327120        0.2236198831189933E-02
     4.806307409022365        0.2047375974800384E-02
     4.816341453717610        0.1867280100726496E-02
     4.826375498412855        0.1695957416551057E-02
     4.836409543108100        0.1533418610447421E-02
     4.846443587803344        0.1379640217457680E-02
     4.856477632498589        0.1234566162245931E-02
     4.866511677193834        0.1098109427876470E-02
     4.876545721889080        0.9701538010922825E-03
     4.886579766584325        0.8505556428179293E-03
     4.896613811279570        0.7391456265730517E-03
     4.906647855974815        0.6357303741955600E-03
     4.916681900670060        0.5400938919007266E-03
     4.926715945365305        0.4519986582596721E-03
     4.936749990060550        0.3711861128680504E-03
     4.946784034755795        0.2973760781432765E-03
     4.956818079451040        0.2302641552967165E-03
     4.966852124146285        0.1695148948818926E-03
     4.976886168841530        0.1147449110532321E-03
     4.986920213536775        0.6547745233725603E-04
     4.996954258232020        0.2097563216332369E-04
     5.006988302927265         0.000000000000000    
  0  5  2  0  0.000000   #orbital l, n, z, is_polarized, population
 500    0.6917720207026597E-02     3.451942383306272     # npts, delta, cutoff
     0.000000000000000       -0.3305371105200703    
    0.6917720207026597E-02   -0.3304590105153299    
    0.1383544041405319E-01   -0.3302126122591805    
    0.2075316062107979E-01   -0.3298021553362877    
    0.2767088082810639E-01   -0.3292279569783805    
    0.3458860103513298E-01   -0.3284904588384060    
    0.4150632124215958E-01   -0.3275902272613418    
    0.4842404144918618E-01   -0.3265279525162260    
    0.5534176165621277E-01   -0.3253044477253063    