<preamble>

<basis_specs>
===============================================================================
Mg                   Z=  12    Mass=  24.305        Charge= 0.17977+309
Lmxo=1 Lmxkb= 1    BasisType=split      Semic=T
L=0  Nsemic=1  Cnfigmx=3
          i=1  nzeta=1  polorb=0  (2s)  (semicore shell)
            splnorm:   0.15000    
               vcte:    40.000    
               rinn:    2.2087    
               qcoe:    0.0000    
               qyuk:    0.0000    
               qwid:   0.10000E-01
                rcs:    2.4516    
            lambdas:    1.0000    
          i=2  nzeta=2  polorb=0  (3s)  (to be polarized non-perturbatively)
            splnorm:   0.15000    
               vcte:    40.000    
               rinn:    6.8631    
               qcoe:    0.0000    
               qyuk:    0.0000    
               qwid:   0.10000E-01
                rcs:    7.6257      5.4630    
            lambdas:    1.0000      1.0000    
L=1  Nsemic=1  Cnfigmx=3
          i=1  nzeta=1  polorb=0  (2p)  (semicore shell)
            splnorm:   0.15000    
               vcte:    40.000    
               rinn:    2.4740    
               qcoe:    0.0000    
               qyuk:    0.0000    
               qwid:   0.10000E-01
                rcs:    2.7489    
            lambdas:    1.0000    
          i=2  nzeta=1  polorb=0  (3p)  (non-perturbative polarization shell)
            splnorm:   0.15000    
               vcte:    40.000    
               rinn:    6.8700    
               qcoe:    0.0000    
               qyuk:    0.0000    
               qwid:   0.10000E-01
                rcs:    7.6257    
            lambdas:    1.0000    
-------------------------------------------------------------------------------
L=0  Nkbl=2  erefs: 0.17977+309 0.17977+309
L=1  Nkbl=2  erefs: 0.17977+309 0.17977+309
===============================================================================
</basis_specs>

<pseudopotential_header>
 Mg pb nrl nc  
 ONCVPSP-3.2017-10-31Hamann's oncvpsp                        
 2s 2.00  r= 1.16/2p 6.00  r= 1.56/                                     2s:2p:3s:
</pseudopotential_header>
</preamble>
Mg                            # Symbol
Mg                            # Label
   12                         # Atomic number
     10.0000000000                             # Valence charge
     24.3050000000        # Mass 
     145.002162675        # Self energy 
   1   5                      # Lmax for basis, no. of nl orbitals 
   1   4                      # Lmax for projectors, no. of nl KB projectors
# PAOs:__________________________
  0  2  1  0  2.000000   #orbital l, n, z, is_polarized, population
 500    0.4913116175044595E-02     2.451644971347253     # npts, delta, cutoff
     0.000000000000000         3.505174283015744    
    0.4913116175044595E-02     3.504971928317555    
    0.9826232350089191E-02     3.504539667521866    
    0.1473934852513379E-01     3.503819445252526    
    0.1965246470017838E-01     3.502811431353134    
    0.2456558087522298E-01     3.501515899101201    
    0.2947869705026757E-01     3.499933205213768    
    0.3439181322531217E-01     3.498063786790171    
    0.3930492940035676E-01     3.495908160329288    
    0.4421804557540136E-01     3.493466921169999    
    0.4913116175044595E-01     3.490740743025233    
    0.5404427792549055E-01     3.487730377520296    
    0.5895739410053515E-01     3.484436653706187    
    0.6387051027557974E-01     3.480860477537279    
    0.6878362645062433E-01     3.477002831309350    
    0.7369674262566893E-01     3.472864773056684    
    0.7860985880071353E-01     3.468447435908178    
    0.8352297497575813E-01     3.463752027402998    
    0.8843609115080273E-01     3.458779828766736    
    0.9334920732584731E-01     3.453532194149085    
    0.9826232350089191E-01     3.448010549824290    
    0.1031754396759365         3.442216393355676    
    0.1080885558509811         3.436151292725750    
    0.1130016720260257         3.429816885433146    
    0.1179147882010703         3.423214877558079    
    0.1228279043761149         3.416347042797772    
    0.1277410205511595         3.409215221473333    
    0.1326541367262041         3.401821319509804    
    0.1375672529012487         3.394167307390852    
    0.1424803690762933         3.386255219089737    
    0.1473934852513379         3.378087150978133    
    0.1523066014263825         3.369665260714386    
    0.1572197176014271         3.360991766112761    
    0.1621328337764716         3.352068943995296    
    0.1670459499515163         3.342899129027681    
    0.1719590661265608         3.333484712540764    
    0.1768721823016055         3.323828141339087    
    0.1817852984766500         3.313931916497868    
    0.1866984146516946         3.303798592149938    
    0.1916115308267392         3.293430774263769    
    0.1965246470017838         3.282831119414078    
    0.2014377631768284         3.272002333546108    
    0.2063508793518730         3.260947170734845    
    0.2112639955269176         3.249668431940218    
    0.2161771117019622         3.238168963759414    
    0.2210902278770068         3.226451657177266    
    0.2260033440520514         3.214519446315562    
    0.2309164602270960         3.202375307182297    
    0.2358295764021406         3.190022256421495    
    0.2407426925771852         3.177463350064380    
    0.2456558087522298         3.164701682282569    
    0.2505689249272744         3.151740384143805    
    0.2554820411023190         3.138582622370755    
    0.2603951572773636         3.125231598103315    
    0.2653082734524081         3.111690545664795    
    0.2702213896274527         3.097962731332204    
    0.2751345058024973         3.084051452110998    
    0.2800476219775420         3.069960034514311    
    0.2849607381525865         3.055691833346883    
    0.2898738543276311         3.041250230493675    
    0.2947869705026757         3.026638633713159    
    0.2997000866777203         3.011860475435237    
    0.3046132028527649         2.996919211563678    
    0.3095263190278095         2.981818320282881    
    0.3144394352028541         2.966561300868781    
    0.3193525513778987         2.951151672503671    
    0.3242656675529433         2.935592973094638    
    0.3291787837279879         2.919888758095320    
    0.3340918999030325         2.904042599330669    
    0.3390050160780771         2.888058083824350    
    0.3439181322531217         2.871938812628410    
    0.3488312484281663         2.855688399654886    
    0.3537443646032109         2.839310470508901    
    0.3586574807782555         2.822808661322937    
    0.3635705969533001         2.806186617591859    
    0.3684837131283447         2.789447993008340    
    0.3733968293033892         2.772596448298335    
    0.3783099454784338         2.755635650056269    
    0.3832230616534785         2.738569269579600    
    0.3881361778285231         2.721400981702514    
    0.3930492940035676         2.704134463628650    
    0.3979624101786122         2.686773393937037    
    0.4028755263536568         2.669321450906906    
    0.4077886425287015         2.651782311804468    
    0.4127017587037460         2.634159651605689    
    0.4176148748787906         2.616457141794853    
    0.4225279910538352         2.598678449187035    
    0.4274411072288798         2.580827234748789    
    0.4323542234039244         2.562907152417197    
    0.4372673395789690         2.544921847917437    
    0.4421804557540136         2.526874957579118    
    0.4470935719290582         2.508770107151673    
    0.4520066881041028         2.490610910619178    
    0.4569198042791474         2.472400969015006    
    0.4618329204541920         2.454143869236809    
    0.4667460366292366         2.435843182862386    
    0.4716591528042812         2.417502464967026    
    0.4765722689793258         2.399125252943020    
    0.4814853851543703         2.380715065322061    
    0.4863985013294150         2.362275400601340    
    0.4913116175044596         2.343809736074157    
    0.4962247336795041         2.325321526665989    
    0.5011378498545488         2.306814203776951    
    0.5060509660295933         2.288291174131654    
    0.5109640822046380         2.269755818637509    
    0.5158771983796825         2.251211491252619    
    0.5207903145547271         2.232661517864297    
    0.5257034307297718         2.214109195179519    
    0.5306165469048163         2.195557789628358    
    0.5355296630798609         2.177010536281767    
    0.5404427792549055         2.158470637784901    
    0.5453558954299501         2.139941263307208    
    0.5502690116049946         2.121425547510680    
    0.5551821277800393         2.102926589537466    
    0.5600952439550839         2.084447452018178    
    0.5650083601301285         2.065991160102177    
    0.5699214763051731         2.047560700511136    
    0.5748345924802176         2.029159020617163    
    0.5797477086552623         2.010789027546708    
    0.5846608248303069         1.992453587311507    
    0.5895739410053514         1.974155523967814    
    0.5944870571803961         1.955897618805016    
    0.5994001733554406         1.937682609564836    
    0.6043132895304852         1.919513189692192    
    0.6092264057055299         1.901392007618766    
    0.6141395218805744         1.883321666080285    
    0.6190526380556191         1.865304721468423    
    0.6239657542306636         1.847343683218289    
    0.6288788704057082         1.829441013232227    
    0.6337919865807529         1.811599125340701    
    0.6387051027557974         1.793820384801000    
    0.6436182189308420         1.776107107834313    
    0.6485313351058866         1.758461561201694    
    0.6534444512809312         1.740885961819419    
    0.6583575674559758         1.723382476414060    
    0.6632706836310204         1.705953221217565    
    0.6681837998060650         1.688600261702561    
    0.6730969159811095         1.671325612357958    
    0.6780100321561542         1.654131236504934    
    0.6829231483311988         1.637019046153178    
    0.6878362645062434         1.619990901897235    
    0.6927493806812880         1.603048612852794    
    0.6976624968563325         1.586193936632534    
    0.7025756130313772         1.569428579361065    
    0.7074887292064218         1.552754195728574    
    0.7124018453814663         1.536172389082523    
    0.7173149615565110         1.519684711556745    
    0.7222280777315555         1.503292664237173    
    0.7271411939066001         1.486997697363439    
    0.7320543100816447         1.470801210565408    
    0.7369674262566893         1.454704553133646    
    0.7418805424317340         1.438709024322874    
    0.7467936586067785         1.422815873687206    
    0.7517067747818231         1.407026301446098    
    0.7566198909568677         1.391341458879738    
    0.7615330071319123         1.375762448752631    
    0.7664461233069569         1.360290325764041    
    0.7713592394820015         1.344926097023969    
    0.7762723556570461         1.329670722553242    
    0.7811854718320906         1.314525115806281    
    0.7860985880071353         1.299490144215099    
    0.7910117041821799         1.284566629753072    
    0.7959248203572244         1.269755349516923    
    0.8008379365322691         1.255057036325491    
    0.8057510527073136         1.240472379333684    
    0.8106641688823583         1.226002024660152    
    0.8155772850574029         1.211646576027142    
    0.8204904012324474         1.197406595411056    
    0.8254035174074921         1.183282603702144    
    0.8303166335825366         1.169275081371959    
    0.8352297497575812         1.155384469146995    
    0.8401428659326259         1.141611168687238    
    0.8450559821076704         1.127955543268063    
    0.8499690982827151         1.114417918464277    
    0.8548822144577596         1.100998582834862    
    0.8597953306328042         1.087697788607250    
    0.8647084468078488         1.074515752359823    
    0.8696215629828934         1.061452655701544    
    0.8745346791579380         1.048508645947514    
    0.8794477953329826         1.035683836789494    
    0.8843609115080272         1.022978308960286    
    0.8892740276830717         1.010392110891143    
    0.8941871438581164        0.9979252593612612    
    0.8991002600331610        0.9855777401385596    
    0.9040133762082055        0.9733495086110814    
    0.9089264923832502        0.9612404904082044    
    0.9138396085582947        0.9492505820112711    
    0.9187527247333394        0.9373796513528431    
    0.9236658409083840        0.9256275384044409    
    0.9285789570834285        0.9139940557520424    
    0.9334920732584732        0.9024789891593427    
    0.9384051894335177        0.8910820981182782    
    0.9433183056085623        0.8798031163867860    
    0.9482314217836070        0.8686417525136522    
    0.9531445379586515        0.8575976903503206    
    0.9580576541336961        0.8466705895498595    
    0.9629707703087407        0.8358600860529162    
    0.9678838864837853        0.8251657925610824    
    0.9727970026588300        0.8145872989975853    
    0.9777101188338745        0.8041241729557663    
    0.9826232350089191        0.7937759601355397    
    0.9875363511839637        0.7835421847681631    
    0.9924494673590083        0.7734223500298347    
    0.9973625835340529        0.7634159384443415    
     1.002275699709098        0.7535224122754587    
     1.007188815884142        0.7437412139094114    
     1.012101932059187        0.7340717662280234    
     1.017015048234231        0.7245134729731240    
     1.021928164409276        0.7150657191027014    
     1.026841280584321        0.7057278711395322    
     1.031754396759365        0.6964992775127565    
     1.036667512934410        0.6873792688931143    
     1.041580629109454        0.6783671585224588    
     1.046493745284499        0.6694622425381179    
     1.051406861459544        0.6606638002928268    
     1.056319977634588        0.6519710946707646    
     1.061233093809633        0.6433833724003588    
     1.066146209984677        0.6348998643644632    
     1.071059326159722        0.6265197859084622    
     1.075972442334767        0.6182423371469072    
     1.080885558509811        0.6100667032692110    
     1.085798674684856        0.6019920548449285    
     1.090711790859900        0.5940175481291271    
     1.095624907034945        0.5861423253682960    
     1.100538023209989        0.5783655151072549    
     1.105451139385034        0.5706862324974356    
     1.110364255560079        0.5631035796069226    
     1.115277371735123        0.5556166457325658    
     1.120190487910168        0.5482245077145350    
     1.125103604085212        0.5409262302179860    
     1.130016720260257        0.5337208660212044    
     1.134929836435302        0.5266074565448976    
     1.139842952610346        0.5195850324412826    
     1.144756068785391        0.5126526136040697    
     1.149669184960435        0.5058092084397247    
     1.154582301135480        0.4990538138131833    
     1.159495417310525        0.4923854170910755    
     1.164408533485569        0.4858029999229365    
     1.169321649660614        0.4793055424037000    
     1.174234765835658        0.4728920275015840    
     1.179147882010703        0.4665614451180162    
     1.184060998185748        0.4603127951635848    
     1.188974114360792        0.4541450878119446    
     1.193887230535837        0.4480573426515463    
     1.198800346710881        0.4420485876729131    
     1.203713462885926        0.4361178594696692    
     1.208626579060970        0.4302642034920480    
     1.213539695236015        0.4244866742535921    
     1.218452811411060        0.4187843352708063    
     1.223365927586104        0.4131562590574363    
     1.228279043761149        0.4076015271314395    
     1.233192159936193        0.4021192300215618    
     1.238105276111238        0.3967084672686118    
     1.243018392286283        0.3913683474223287    
     1.247931508461327        0.3860979880342545    
     1.252844624636372        0.3808965156469457    
     1.257757740811416        0.3757630657796941    
     1.262670856986461        0.3706967829106563    
     1.267583973161506        0.3656968204559131    
     1.272497089336550        0.3607623407455145    
     1.277410205511595        0.3558925149963960    
     1.282323321686639        0.3510865232826494    
     1.287236437861684        0.3463435545032684    
     1.292149554036729        0.3416628063471196    
     1.297062670211773        0.3370434852556876    
     1.301975786386818        0.3324848063836989    
     1.306888902561862        0.3279859935573338    
     1.311802018736907        0.3235462792305440    
     1.316715134911952        0.3191649044396131    
     1.321628251086996        0.3148411187556575    
     1.326541367262041        0.3105741802355120    
     1.331454483437085        0.3063633553711441    
     1.336367599612130        0.3022079190373950    
     1.341280715787175        0.2981071544383090    
     1.346193831962219        0.2940603530522354    
     1.351106948137264        0.2900668145756392    
     1.356020064312308        0.2861258468656521    
     1.360933180487353        0.2822367658816184    
     1.365846296662398        0.2783988956256918    
     1.370759412837442        0.2746115680823014    
     1.375672529012487        0.2708741231568393    
     1.380585645187531        0.2671859086136196    
     1.385498761362576        0.2635462800129222    
     1.390411877537621        0.2599546006474143    
     1.395324993712665        0.2564102414779728    
     1.400238109887710        0.2529125810688961    
     1.405151226062754        0.2494610055225466    
     1.410064342237799        0.2460549084135489    
     1.414977458412844        0.2426936907226053    
     1.419890574587888        0.2393767607698100    
     1.424803690762933        0.2361035341476797    
     1.429716806937977        0.2328734336538960    
     1.434629923113022        0.2296858892237356    
     1.439543039288066        0.2265403378622702    
     1.444456155463111        0.2234362235763763    
     1.449369271638156        0.2203729973065899    
     1.454282387813200        0.2173501168587801    
     1.459195503988245        0.2143670468357340    
     1.464108620163289        0.2114232585686557    
     1.469021736338334        0.2085182300485885    
     1.473934852513379        0.2056514458578005    
     1.478847968688423        0.2028223971011483    
     1.483761084863468        0.2000305813374388    
     1.488674201038512        0.1972755025107975    
     1.493587317213557        0.1945566708820720    
     1.498500433388602        0.1918736029602454    
     1.503413549563646        0.1892258214339809    
     1.508326665738691        0.1866128551032763    
     1.513239781913735        0.1840342388110699    
     1.518152898088780        0.1814895133749256    
     1.523066014263825        0.1789782255188912    
     1.527979130438869        0.1764999278057567    
     1.532892246613914        0.1740541785694452    
     1.537805362788958        0.1716405418465151    
     1.542718478964003        0.1692585873082713    
     1.547631595139048        0.1669078901914913    
     1.552544711314092        0.1645880312351500    
     1.557457827489137        0.1622985966146489    
     1.562370943664181        0.1600391778691483    
     1.567284059839226        0.1578093718313270    
     1.572197176014271        0.1556087805706564    
     1.577110292189315        0.1534370113244717    
     1.582023408364360        0.1512936764353862    
     1.586936524539404        0.1491783933090413    
     1.591849640714449        0.1470907842758599    
     1.596762756889494        0.1450304765805107    
     1.601675873064538        0.1429971023037859    
     1.606588989239583        0.1409902982810697    
     1.611502105414627        0.1390097060931982    
     1.616415221589672        0.1370549719513189    
     1.621328337764717        0.1351257466460238    
     1.626241453939761        0.1332216854853334    
     1.631154570114806        0.1313424482300888    
     1.636067686289850        0.1294876990327856    
     1.640980802464895        0.1276571063746793    
     1.645893918639940        0.1258503430038200    
     1.650807034814984        0.1240670858744262    
     1.655720150990029        0.1223070160854018    
     1.660633267165073        0.1205698188203658    
     1.665546383340118        0.1188551832880540    
     1.670459499515162        0.1171628026633906    
     1.675372615690207        0.1154923740291574    
     1.680285731865252        0.1138435983184064    
     1.685198848040296        0.1122161802576003    
     1.690111964215341        0.1106098283105643    
     1.695025080390385        0.1090242546231777    
     1.699938196565430        0.1074591749689494    
     1.704851312740475        0.1059143086954516    
     1.709764428915519        0.1043893786716952    
     1.714677545090564        0.1028841112363818    
     1.719590661265608        0.1013982361471525    
     1.724503777440653        0.9993148653081399E-01
     1.729416893615698        0.9848359883460361E-01
     1.734330009790742        0.9705431277844713E-01
     1.739243125965787        0.9564337130828783E-01
     1.744156242140831        0.9425052055047740E-01
     1.749069358315876        0.9287550976724337E-01
     1.753982474490920        0.9151809131323559E-01
     1.758895590665965        0.9017802059315722E-01
     1.763808706841010        0.8885505602048265E-01
     1.768721823016054        0.8754895897725151E-01
     1.773634939191099        0.8625949377492988E-01
     1.778548055366143        0.8498642761634041E-01
     1.783461171541188        0.8372953055862145E-01
     1.788374287716233        0.8248857547721271E-01
     1.793287403891277        0.8126333803080737E-01
     1.798200520066322        0.8005359662731014E-01
     1.803113636241366        0.7885913239070019E-01
     1.808026752416411        0.7767972912879942E-01
     1.812939868591456        0.7651517330188243E-01
     1.817852984766500        0.7536525399212307E-01
     1.822766100941545        0.7422976287380609E-01
     1.827679217116589        0.7310849418426336E-01
     1.832592333291634        0.7200124469549467E-01
     1.837505449466679        0.7090781368642507E-01
     1.842418565641723        0.6982800291573550E-01
     1.847331681816768        0.6876161659523845E-01
     1.852244797991812        0.6770846136372688E-01
     1.857157914166857        0.6666834626132136E-01
     1.862071030341902        0.6564108270412683E-01
     1.866984146516946        0.6462648445928085E-01
     1.871897262691991        0.6362436762029273E-01
     1.876810378867035        0.6263455058266901E-01
     1.881723495042080        0.6165685401978738E-01
     1.886636611217125        0.6069110085884884E-01
     1.891549727392169        0.5973711625707257E-01
     1.896462843567214        0.5879472757795062E-01
     1.901375959742258        0.5786376436774254E-01
     1.906289075917303        0.5694405833183889E-01
     1.911202192092348        0.5603544331125579E-01
     1.916115308267392        0.5513775525915416E-01
     1.921028424442437        0.5425083221735114E-01
     1.925941540617481        0.5337451429295398E-01
     1.930854656792526        0.5250864363473676E-01
     1.935767772967571        0.5165306440965934E-01
     1.940680889142615        0.5080762277929821E-01
     1.945594005317660        0.4997216687632430E-01
     1.950507121492704        0.4914654678090273E-01
     1.955420237667749        0.4833061449699214E-01
     1.960333353842794        0.4752422392870884E-01
     1.965246470017838        0.4672723085661037E-01
     1.970159586192883        0.4593949291409938E-01
     1.975072702367927        0.4516086956364949E-01
     1.979985818542972        0.4439122207311146E-01
     1.984898934718017        0.4363041349204239E-01
     1.989812050893061        0.4287830862803056E-01
     1.994725167068106        0.4213477402316113E-01
     1.999638283243150        0.4139967793037655E-01
     2.004551399418195        0.4067289028999461E-01
     2.009464515593240        0.3995428270628378E-01
     2.014377631768284        0.3924372842411684E-01
     2.019290747943329        0.3854110230577752E-01
     2.024203864118373        0.3784628080779073E-01
     2.029116980293418        0.3715914195793533E-01
     2.034030096468463        0.3647956533237961E-01
     2.038943212643507        0.3580743203296282E-01
     2.043856328818552        0.3514262466465149E-01
     2.048769444993596        0.3448502731312655E-01
     2.053682561168641        0.3383452552257250E-01
     2.058595677343686        0.3319100627364548E-01
     2.063508793518730        0.3255435796163385E-01
     2.068421909693775        0.3192447037482526E-01
     2.073335025868819        0.3130123467306883E-01
     2.078248142043864        0.3068454336655691E-01
     2.083161258218909        0.3007429029482610E-01
     2.088074374393953        0.2947037060597917E-01
     2.092987490568998        0.2887268073613619E-01
     2.097900606744042        0.2828111838911411E-01
     2.102813722919087        0.2769558251634022E-01
     2.107726839094131        0.2711597329700403E-01
     2.112639955269176        0.2654219211844373E-01
     2.117553071444221        0.2597414155677540E-01
     2.122466187619265        0.2541172535776012E-01
     2.127379303794310        0.2485484841791231E-01
     2.132292419969354        0.2430341676584970E-01
     2.137205536144399        0.2375733754388201E-01
     2.142118652319444        0.2321651898984345E-01
     2.147031768494488        0.2268087041915902E-01
     2.151944884669533        0.2215030220715104E-01
     2.156858000844577        0.2162472577158253E-01
     2.161771117019622        0.2110405355543157E-01
     2.166684233194667        0.2058819900990434E-01
     2.171597349369711        0.2007707657767147E-01
     2.176510465544756        0.1957060167633438E-01
     2.181423581719800        0.1906869068211730E-01
     2.186336697894845        0.1857126091378100E-01
     2.191249814069890        0.1807823061675812E-01
     2.196162930244934        0.1758951894750501E-01
     2.201076046419979        0.1710504595806252E-01
     2.205989162595023        0.1662473258083219E-01
     2.210902278770068        0.1614850061355878E-01
     2.215815394945113        0.1567627270451510E-01
     2.220728511120157        0.1520797233789734E-01
     2.225641627295202        0.1474352382076047E-01
     2.230554743470246        0.1428285234651271E-01
     2.235467859645291        0.1382588493049446E-01
     2.240380975820336        0.1337255459159973E-01
     2.245294091995380        0.1292280957262399E-01
     2.250207208170425        0.1247662591149324E-01
     2.255120324345469        0.1203401958337945E-01
     2.260033440520514        0.1159505521471364E-01
     2.264946556695559        0.1115985020920825E-01
     2.269859672870603        0.1072857455090890E-01
     2.274772789045648        0.1030144723628209E-01
     2.279685905220692        0.9878730437872631E-02
     2.284599021395737        0.9460722378848809E-02
     2.289512137570782        0.9047749679344767E-02
     2.294425253745826        0.8640159714677506E-02
     2.299338369920870        0.8238313339689001E-02
     2.304251486095915        0.7842578191378756E-02
     2.309164602270960        0.7453322679991793E-02
     2.314077718446005        0.7070910708953027E-02
     2.318990834621049        0.6695697118505788E-02
     2.323903950796093        0.6328023819763272E-02
     2.328817066971138        0.5968216569771081E-02
     2.333730183146183        0.5616582330143815E-02
     2.338643299321228        0.5273407149096214E-02
     2.343556415496272        0.4938954507178128E-02
     2.348469531671316        0.4613464069446336E-02
     2.353382647846361        0.4297150790197672E-02
     2.358295764021406        0.3990204320110289E-02
     2.363208880196451        0.3692788669254256E-02
     2.368121996371495        0.3405042082593609E-02
     2.373035112546539        0.3127077086983632E-02
     2.377948228721584        0.2858980669965392E-02
     2.382861344896629        0.2600814550387506E-02
     2.387774461071674        0.2352615498346451E-02
     2.392687577246718        0.2114395655972371E-02
     2.397600693421762        0.1886142799130371E-02
     2.402513809596807        0.1667820459466391E-02
     2.407426925771852        0.1459367789395680E-02
     2.412340041946897        0.1260698985698108E-02
     2.417253158121941        0.1071701961170415E-02
     2.422166274296985        0.8922357026738204E-03
     2.427079390472030        0.7221252173872342E-03
     2.431992506647075        0.5611517102394569E-03
     2.436905622822120        0.4090322860997860E-03
     2.441818738997164        0.2653728174857570E-03
     2.446731855172208        0.1295327245546494E-03
     2.451644971347253         0.000000000000000    
  0  3  1  0  2.000000   #orbital l, n, z, is_polarized, population
 500    0.1528189042493722E-01     7.625663322043671     # npts, delta, cutoff
     0.000000000000000         1.013025786704447    
    0.1528189042493722E-01     1.012389113882884    
    0.3056378084987443E-01     1.010531552692893    
    0.4584567127481165E-01     1.007441839521891    
    0.6112756169974887E-01     1.003129254824759    
    0.7640945212468608E-01    0.9976067173332379    
    0.9169134254962330E-01    0.9908907064389362    
    0.1069732329745605        0.9830011664659718    
    0.1222551233994977        0.9739613928065914    
    0.1375370138244350        0.9637979013259174    
    0.1528189042493722        0.9525402827179926    