<preamble>

<basis_specs>
===============================================================================
Na                   Z=  11    Mass=  22.990        Charge= 0.17977+309
Lmxo=1 Lmxkb= 1    BasisType=split      Semic=T
L=0  Nsemic=1  Cnfigmx=3
          i=1  nzeta=1  polorb=0  (2s)  (semicore shell)
            splnorm:   0.15000    
               vcte:    40.000    
               rinn:    2.4715    
               qcoe:    0.0000    
               qyuk:    0.0000    
               qwid:   0.10000E-01
                rcs:    2.7434    
            lambdas:    1.0000    
          i=2  nzeta=2  polorb=0  (3s)  (to be polarized non-perturbatively)
            splnorm:   0.15000    
               vcte:    40.000    
               rinn:    8.5285    
               qcoe:    0.0000    
               qyuk:    0.0000    
               qwid:   0.10000E-01
                rcs:    9.4666      6.9685    
            lambdas:    1.0000      1.0000    
L=1  Nsemic=1  Cnfigmx=3
          i=1  nzeta=1  polorb=0  (2p)  (semicore shell)
            splnorm:   0.15000    
               vcte:    40.000    
               rinn:    2.8787    
               qcoe:    0.0000    
               qyuk:    0.0000    
               qwid:   0.10000E-01
                rcs:    3.1954    
            lambdas:    1.0000    
          i=2  nzeta=1  polorb=0  (3p)  (non-perturbative polarization shell)
            splnorm:   0.15000    
               vcte:    40.000    
               rinn:    8.5285    
               qcoe:    0.0000    
               qyuk:    0.0000    
               qwid:   0.10000E-01
                rcs:    9.4666    
            lambdas:    1.0000    
-------------------------------------------------------------------------------
L=0  Nkbl=2  erefs: 0.17977+309 0.17977+309
L=1  Nkbl=2  erefs: 0.17977+309 0.17977+309
===============================================================================
</basis_specs>

<pseudopotential_header>
 Na pb nrl nc  
 ONCVPSP-3.2017-10-31Hamann's oncvpsp                        
 2s 2.00  r= 1.21/2p 6.00  r= 1.55/                                     2s:2p:3s:
</pseudopotential_header>
</preamble>
Na                            # Symbol
Na                            # Label
   11                         # Atomic number
     9.00000000000                             # Valence charge
     22.9900000000        # Mass 
     109.426991259        # Self energy 
   1   5                      # Lmax for basis, no. of nl orbitals 
   1   4                      # Lmax for projectors, no. of nl KB projectors
# PAOs:__________________________
  0  2  1  0  2.000000   #orbital l, n, z, is_polarized, population
 500    0.5497758634857929E-02     2.743381558794107     # npts, delta, cutoff
     0.000000000000000         2.900957453322999    
    0.5497758634857929E-02     2.900804048116785    
    0.1099551726971586E-01     2.900474059928954    
    0.1649327590457379E-01     2.899924202489388    
    0.2199103453943172E-01     2.899154561195168    
    0.2748879317428965E-01     2.898165279359222    
    0.3298655180914758E-01     2.896956545037341    
    0.3848431044400551E-01     2.895528589167672    
    0.4398206907886344E-01     2.893881685129734    
    0.4947982771372136E-01     2.892016148622282    
    0.5497758634857929E-01     2.889932337640453    
    0.6047534498343722E-01     2.887630652491803    
    0.6597310361829516E-01     2.885111535830774    
    0.7147086225315308E-01     2.882375472703156    
    0.7696862088801101E-01     2.879422990596431    
    0.8246637952286894E-01     2.876254659494056    
    0.8796413815772687E-01     2.872871091931896    
    0.9346189679258481E-01     2.869272943056000    
    0.9895965542744273E-01     2.865460910680531    
    0.1044574140623007         2.861435735345090    
    0.1099551726971586         2.857198200370454    
    0.1154529313320165         2.852749131911955    
    0.1209506899668744         2.848089399009643    
    0.1264484486017324         2.843219913634256    
    0.1319462072365903         2.838141630728146    
    0.1374439658714482         2.832855548240232    
    0.1429417245063062         2.827362707154090    
    0.1484394831411641         2.821664191508101    
    0.1539372417760220         2.815761128406837    
    0.1594350004108800         2.809654688022541    
    0.1649327590457379         2.803346083585919    
    0.1704305176805958         2.796836571365117    
    0.1759282763154537         2.790127450631896    
    0.1814260349503117         2.783220063614197    
    0.1869237935851696         2.776115795433896    
    0.1924215522200275         2.768816074028967    
    0.1979193108548855         2.761322370059055    
    0.2034170694897434         2.753636196793513    
    0.2089148281246013         2.745759109981020    
    0.2144125867594592         2.737692707699899    
    0.2199103453943172         2.729438630188319    
    0.2254081040291751         2.720998559653463    
    0.2309058626640330         2.712374220058951    
    0.2364036212988910         2.703567376889779    
    0.2419013799337489         2.694579836893950    
    0.2473991385686068         2.685413447800219    
    0.2528968972034648         2.676070098011301    
    0.2583946558383227         2.666551716271881    
    0.2638924144731806         2.656860271310956    
    0.2693901731080385         2.646997771457993    
    0.2748879317428965         2.636966264232423    
    0.2803856903777544         2.626767835906165    
    0.2858834490126123         2.616404611038649    
    0.2913812076474703         2.605878751984339    
    0.2968789662823282         2.595192458372251    
    0.3023767249171861         2.584347966557435    
    0.3078744835520441         2.573347549044311    
    0.3133722421869020         2.562193513881725    
    0.3188700008217599         2.550888204029814    
    0.3243677594566178         2.539433996698656    
    0.3298655180914757         2.527833302658900    
    0.3353632767263337         2.516088565524514    
    0.3408610353611916         2.504202261007901    
    0.3463587939960496         2.492176896147686    
    0.3518565526309075         2.480015008509532    
    0.3573543112657654         2.467719165360386    
    0.3628520699006234         2.455291962816644    
    0.3683498285354813         2.442736024966756    
    0.3738475871703392         2.430054002968845    
    0.3793453458051971         2.417248574124000    
    0.3848431044400550         2.404322440925893    
    0.3903408630749130         2.391278330087486    
    0.3958386217097709         2.378118991545611    
    0.4013363803446289         2.364847197444247    
    0.4068341389794868         2.351465741097352    
    0.4123318976143447         2.337977435932232    
    0.4178296562492027         2.324385114414314    
    0.4233274148840606         2.310691626954410    
    0.4288251735189185         2.296899840799438    
    0.4343229321537764         2.283012638907701    
    0.4398206907886343         2.269032918809789    
    0.4453184494234923         2.254963591456266    
    0.4508162080583502         2.240807582812082    
    0.4563139666932081         2.226567826014300    
    0.4618117253280661         2.212247263529494    
    0.4673094839629240         2.197848848243632    
    0.4728072425977820         2.183375540543232    
    0.4783050012326399         2.168830307108418    
    0.4838027598674978         2.154216119701110    
    0.4893005185023557         2.139535953949663    
    0.4947982771372136         2.124792788131157    
    0.5002960357720716         2.109989601952576    
    0.5057937944069295         2.095129375332167    
    0.5112915530417874         2.080215087182186    
    0.5167893116766453         2.065249714194259    
    0.5222870703115033         2.050236229628585    
    0.5277848289463613         2.035177602108226    
    0.5332825875812192         2.020076794419583    
    0.5387803462160771         2.004936762320329    
    0.5442781048509350         1.989760453355878    
    0.5497758634857930         1.974550805685560    
    0.5552736221206509         1.959310746919576    
    0.5607713807555088         1.944043192967811    
    0.5662691393903667         1.928751046901592    
    0.5717668980252246         1.913437197829305    
    0.5772646566600826         1.898104519786952    
    0.5827624152949406         1.882755870644557    
    0.5882601739297985         1.867394091029275    
    0.5937579325646564         1.852022003266177    
    0.5992556911995143         1.836642410337439    
    0.6047534498343722         1.821258094860769    
    0.6102512084692302         1.805871818087846    
    0.6157489671040881         1.790486318923442    
    0.6212467257389460         1.775104312965859    
    0.6267444843738039         1.759728491569381    
    0.6322422430086618         1.744361520929254    
    0.6377400016435198         1.729006041189744    
    0.6432377602783778         1.713664665575723    
    0.6487355189132357         1.698339979548291    
    0.6542332775480936         1.683034539984811    
    0.6597310361829515         1.667750874383608    
    0.6652287948178095         1.652491480093791    
    0.6707265534526674         1.637258823570372    
    0.6762243120875253         1.622055339654881    
    0.6817220707223832         1.606883430881725    
    0.6872198293572411         1.591745466810379    
    0.6927175879920991         1.576643783383501    
    0.6982153466269571         1.561580682311018    
    0.7037131052618150         1.546558430480231    
    0.7092108638966729         1.531579259391886    
    0.7147086225315308         1.516645364622143    
    0.7202063811663888         1.501758905310369    
    0.7257041398012467         1.486922003672605    
    0.7312018984361046         1.472136744540528    
    0.7366996570709625         1.457405174925752    
    0.7421974157058204         1.442729303609237    
    0.7476951743406784         1.428111100755499    
    0.7531929329755364         1.413552497551374    
    0.7586906916103943         1.399055385869093    
    0.7641884502452522         1.384621617953228    
    0.7696862088801101         1.370253006131197    
    0.7751839675149681         1.355951322547036    
    0.7806817261498260         1.341718298917958    
    0.7861794847846839         1.327555626313309    
    0.7916772434195418         1.313464954955554    
    0.7971750020543997         1.299447894042810    
    0.8026727606892577         1.285506011592513    
    0.8081705193241157         1.271640834305761    
    0.8136682779589736         1.257853847451884    
    0.8191660365938315         1.244146494772760    
    0.8246637952286894         1.230520178406436    
    0.8301615538635473         1.216976258829538    
    0.8356593124984053         1.203516054818067    
    0.8411570711332632         1.190140843426039    
    0.8466548297681211         1.176851859981561    
    0.8521525884029790         1.163650298099814    
    0.8576503470378369         1.150537309712549    
    0.8631481056726950         1.137514005113596    
    0.8686458643075529         1.124581453019935    
    0.8741436229424108         1.111740680647920    
    0.8796413815772687         1.098992673804161    
    0.8851391402121266         1.086338376990762    
    0.8906368988469846         1.073778693524325    
    0.8961346574818425         1.061314485668499    
    0.9016324161167004         1.048946574779522    
    0.9071301747515583         1.036675741464564    
    0.9126279333864162         1.024502725752270    
    0.9181256920212743         1.012428227275431    
    0.9236234506561322         1.000452905465142    
    0.9291212092909901        0.9885773797564424    
    0.9346189679258480        0.9768022298048167    
    0.9401167265607059        0.9651279957135782    
    0.9456144851955639        0.9535551782715159    
    0.9511122438304218        0.9420842392009087    
    0.9566100024652797        0.9307156014152620    
    0.9621077611001376        0.9194496492869603    
    0.9676055197349955        0.9082867289241412    
    0.9731032783698536        0.8972271484570874    
    0.9786010370047115        0.8862711783334236    
    0.9840987956395694        0.8754190516224328    
    0.9895965542744273        0.8646709643278712    
    0.9950943129092852        0.8540270757095128    
     1.000592071544143        0.8434875086129477    
     1.006089830179001        0.8330523498077574    
     1.011587588813859        0.8227216503337508    
     1.017085347448717        0.8124954258552540    
     1.022583106083575        0.8023736570233239    
     1.028080864718433        0.7923562898456888    
     1.033578623353291        0.7824432360645353    
     1.039076381988149        0.7726343735417336    
     1.044574140623007        0.7629295466517876    
     1.050071899257865        0.7533285666820709    
     1.055569657892723        0.7438312122405949    
     1.061067416527580        0.7344372296709588    
     1.066565175162438        0.7251463334745788    
     1.072062933797296        0.7159582067400937    
     1.077560692432154        0.7068725015798164    
     1.083058451067012        0.6978888395733165    
     1.088556209701870        0.6890068122177928    
     1.094053968336728        0.6802259813854453    
     1.099551726971586        0.6715458797875800    
     1.105049485606444        0.6629660114454748    
     1.110547244241302        0.6544858521678774    
     1.116045002876160        0.6461048500350102    
     1.121542761511018        0.6378224258890773    
     1.127040520145876        0.6296379738310952    
     1.132538278780733        0.6215508617240013    
     1.138036037415591        0.6135604317018883    
     1.143533796050449        0.6056660006852536    
     1.149031554685307        0.5978668609021425    
     1.154529313320165        0.5901622804150851    
     1.160027071955023        0.5825515036536484    
     1.165524830589881        0.5750337519522838    
     1.171022589224739        0.5676082240423670    
     1.176520347859597        0.5602740965920094    
     1.182018106494455        0.5530305250480291    
     1.187515865129313        0.5458766445236658    
     1.193013623764171        0.5388115694366211    
     1.198511382399029        0.5318343928305577    
     1.204009141033886        0.5249441873992008    
     1.209506899668744        0.5181400100884265    
     1.215004658303602        0.5114209079504219    
     1.220502416938460        0.5047859245333706    
     1.226000175573318        0.4982341060204722    
     1.231497934208176        0.4917645061549536    
     1.236995692843034        0.4853761872173397    
     1.242493451477892        0.4790682188802390    
     1.247991210112750        0.4728396769359685    
     1.253488968747608        0.4666896436598657    
     1.258986727382466        0.4606172082502738    
     1.264484486017324        0.4546214670743507    
     1.269982244652182        0.4487015236543708    
     1.275480003287040        0.4428564887363105    
     1.280977761921898        0.4370854803629191    
     1.286475520556756        0.4313876239415263    
     1.291973279191613        0.4257620523034502    
     1.297471037826471        0.4202079057568882    
     1.302968796461329        0.4147243321335329    
     1.308466555096187        0.4093104868292322    
     1.313964313731045        0.4039655328390225    
     1.319462072365903        0.3986886407867373    
     1.324959831000761        0.3934789889494891    
     1.330457589635619        0.3883357632772807    
     1.335955348270477        0.3832581574079650    
     1.341453106905335        0.3782453726777786    
     1.346950865540193        0.3732966181277018    
     1.352448624175051        0.3684111105058049    
     1.357946382809909        0.3635880742658291    
     1.363444141444766        0.3588267415621481    
     1.368941900079624        0.3541263522413433    
     1.374439658714482        0.3494861538305157    
     1.379937417349340        0.3449054015225438    
     1.385435175984198        0.3403833581584298    
     1.390932934619056        0.3359192942068904    
     1.396430693253914        0.3315124877413212    
     1.401928451888772        0.3271622244143317    
     1.407426210523630        0.3228677974299072    
     1.412923969158488        0.3186285075133810    
     1.418421727793346        0.3144436628793307    
     1.423919486428204        0.3103125791975018    
     1.429417245063062        0.3062345795568684    
     1.434915003697919        0.3022089944279697    
     1.440412762332778        0.2982351616235961    
     1.445910520967636        0.2943124262579114    
     1.451408279602493        0.2904401407041535    
     1.456906038237351        0.2866176645509639    
     1.462403796872209        0.2828443645574251    
     1.467901555507067        0.2791196146069174    
     1.473399314141925        0.2754427956598695    
     1.478897072776783        0.2718132957054713    
     1.484394831411641        0.2682305097124584    
     1.489892590046499        0.2646938395790265    
     1.495390348681357        0.2612026940815058    
     1.500888107316215        0.2577564888213700    
     1.506385865951073        0.2543546461770061    
     1.511883624585931        0.2509965952469445    
     1.517381383220789        0.2476817717946106    
     1.522879141855646        0.2444096181975220    
     1.528376900490504        0.2411795833925529    
     1.533874659125362        0.2379911228232776    
     1.539372417760220        0.2348436983821331    
     1.544870176395078        0.2317367783356658    
     1.550367935029936        0.2286698372962793    
     1.555865693664794        0.2256423561713323    
     1.561363452299652        0.2226538220648513    
     1.566861210934510        0.2197037282501907    
     1.572358969569368        0.2167915740700057    
     1.577856728204226        0.2139168649533497    
     1.583354486839084        0.2110791123461906    
     1.588852245473942        0.2082778336136454    
     1.594350004108799        0.2055125520205538    
     1.599847762743657        0.2027827965925079    
     1.605345521378515        0.2000881021465076    
     1.610843280013373        0.1974280092036738    
     1.616341038648231        0.1948020639318133    
     1.621838797283089        0.1922098180867407    
     1.627336555917947        0.1896508289553552    
     1.632834314552805        0.1871246592988441    
     1.638332073187663        0.1846308772949015    
     1.643829831822521        0.1821690564814933    
     1.649327590457379        0.1797387756997413    
     1.654825349092237        0.1773396190372483    
     1.660323107727095        0.1749711757716547    
     1.665820866361953        0.1726330403144333    
     1.671318624996811        0.1703248121549067    
     1.676816383631669        0.1680460958045002    
     1.682314142266526        0.1657965007412788    
     1.687811900901384        0.1635756413547489    
     1.693309659536242        0.1613831368909423    
     1.698807418171100        0.1592186113977956    
     1.704305176805958        0.1570816936708554    
     1.709802935440816        0.1549720171992921    
     1.715300694075674        0.1528892201122296    
     1.720798452710532        0.1508329451254311    
     1.726296211345390        0.1488028394883271    
     1.731793969980248        0.1467985549313972    
     1.737291728615106        0.1448197476138903    
     1.742789487249964        0.1428660780719530    
     1.748287245884822        0.1409372111671106    
     1.753785004519679        0.1390328160351321    
     1.759282763154537        0.1371525660352713    
     1.764780521789395        0.1352961386999263    
     1.770278280424253        0.1334632156846820    
     1.775776039059111        0.1316534827187498    
     1.781273797693969        0.1298666295558130    
     1.786771556328827        0.1281023499253044    
     1.792269314963685        0.1263603414840787    
     1.797767073598543        0.1246403057684998    
     1.803264832233401        0.1229419481469547    
     1.808762590868259        0.1212649777727999    
     1.814260349503117        0.1196091075377247    
     1.819758108137975        0.1179740540255270    
     1.825255866772832        0.1163595374663392    
     1.830753625407691        0.1147652816912830    
     1.836251384042549        0.1131910140875526    
     1.841749142677406        0.1116364655539125    
     1.847246901312264        0.1101013704566551    
     1.852744659947122        0.1085854665859853    
     1.858242418581980        0.1070884951128383    
     1.863740177216838        0.1056102005461141    
     1.869237935851696        0.1041503306903699    
     1.874735694486554        0.1027086366039430    
     1.880233453121412        0.1012848725575014    
     1.885731211756270        0.9987879599301315E-01
     1.891228970391128        0.9849016748316670E-01
     1.896726729025986        0.9711875069121974E-01
     1.902224487660844        0.9576431233127239E-01
     1.907722246295702        0.9442662212895553E-01
     1.913220004930559        0.9310545278255673E-01
     1.918717763565417        0.9180057992457581E-01
     1.924215522200275        0.9051178208369386E-01
     1.929713280835133        0.8923884064715690E-01
     1.935211039469991        0.8798153982357089E-01
     1.940708798104849        0.8673966660613709E-01
     1.946206556739707        0.8551301073627915E-01
     1.951704315374565        0.8430136466768293E-01
     1.957202074009423        0.8310452353072476E-01
     1.962699832644281        0.8192228509734013E-01
     1.968197591279139        0.8075444974626589E-01
     1.973695349913997        0.7960082042868927E-01
     1.979193108548855        0.7846120263426462E-01
     1.984690867183712        0.7733540435755988E-01
     1.990188625818570        0.7622323606486563E-01
     1.995686384453428        0.7512451066139540E-01
     2.001184143088286        0.7403904345884442E-01
     2.006681901723144        0.7296665214334672E-01
     2.012179660358002        0.7190715674379894E-01
     2.017677418992860        0.7086037960054785E-01
     2.023175177627718        0.6982614533443703E-01
     2.028672936262576        0.6880428081620499E-01
     2.034170694897434        0.6779461513626500E-01
     2.039668453532292        0.6679697957481441E-01
     2.045166212167150        0.6581120757230108E-01
     2.050663970802008        0.6483713470020515E-01
     2.056161729436865        0.6387459863219967E-01
     2.061659488071724        0.6292343911562015E-01
     2.067157246706581        0.6198349794327108E-01
     2.072655005341439        0.6105461892554884E-01
     2.078152763976297        0.6013664786288720E-01
     2.083650522611155        0.5922943251853429E-01
     2.089148281246013        0.5833282259162738E-01
     2.094646039880871        0.5744666969058321E-01
     2.100143798515729        0.5657082730677094E-01
     2.105641557150587        0.5570515078851906E-01
     2.111139315785445        0.5484949731539584E-01
     2.116637074420303        0.5400372587278875E-01
     2.122134833055161        0.5316769722676410E-01
     2.127632591690019        0.5234127389921062E-01
     2.133130350324877        0.5152432014327602E-01
     2.138628108959734        0.5071670191906767E-01
     2.144125867594592        0.4991828686963090E-01
     2.149623626229451        0.4912894429718256E-01
     2.155121384864308        0.4834854513962875E-01
     2.160619143499166        0.4757696194733652E-01
     2.166116902134024        0.4681406886016316E-01
     2.171614660768882        0.4605974158474286E-01
     2.177112419403740        0.4531385737201584E-01
     2.182610178038598        0.4457629499502527E-01
     2.188107936673456        0.4384693472695038E-01
     2.193605695308314        0.4312565831938497E-01
     2.199103453943172        0.4241234898085661E-01
     2.204601212578030        0.4170689135558545E-01
     2.210098971212888        0.4100917150248629E-01
     2.215596729847745        0.4031907687440141E-01
     2.221094488482604        0.3963649629756907E-01
     2.226592247117461        0.3896131995131945E-01
     2.232090005752319        0.3829343934800678E-01
     2.237587764387177        0.3763274731317093E-01
     2.243085523022035        0.3697913796592368E-01
     2.248583281656893        0.3633250669956514E-01
     2.254081040291751        0.3569275016242215E-01
     2.259578798926609        0.3505976623891802E-01
     2.265076557561467        0.3443345403086359E-01
     2.270574316196325        0.3381371383897332E-01
     2.276072074831183        0.3320044714460662E-01
     2.281569833466041        0.3259355659173203E-01
     2.287067592100898        0.3199294596911631E-01
     2.292565350735757        0.3139852019273690E-01
     2.298063109370614        0.3081018528841841E-01
     2.303560868005472        0.3022784837469183E-01
     2.309058626640331        0.2965141764588494E-01
     2.314556385275188        0.2908080235542923E-01
     2.320054143910046        0.2851591279939505E-01
     2.325551902544904        0.2795666030025377E-01
     2.331049661179762        0.2740295719086288E-01
     2.336547419814620        0.2685471679868616E-01
     2.342045178449478        0.2631185343022904E-01
     2.347542937084336        0.2577428235570706E-01
     2.353040695719194        0.2524191979394115E-01
     2.358538454354052        0.2471468289747856E-01
     2.364036212988910        0.2419248973795164E-01
     2.369533971623768        0.2367525929165201E-01
     2.375031730258625        0.2316291142533623E-01
     2.380529488893484        0.2265536688226275E-01
     2.386027247528341        0.2215254726845117E-01
     2.391525006163199        0.2165437503917888E-01
     2.397022764798057        0.2116077348569372E-01
     2.402520523432915        0.2067166672215222E-01
     2.408018282067773        0.2018697967278805E-01
     2.413516040702631        0.1970663805929737E-01
     2.419013799337489        0.1923056838845399E-01
     2.424511557972347        0.1875869793993997E-01
     2.430009316607205        0.1829095475438895E-01
     2.435507075242063        0.1782726762165132E-01
     2.441004833876921        0.1736756606926924E-01
     2.446502592511778        0.1691178035116382E-01
     2.452000351146637        0.1645984143653121E-01
     2.457498109781494        0.1601168099893538E-01
     2.462995868416352        0.1556723140560535E-01
     2.468493627051210        0.1512642570692859E-01
     2.473991385686068        0.1468919762613381E-01
     2.479489144320926        0.1425548154916585E-01
     2.484986902955784        0.1382521251473753E-01
     2.490484661590642        0.1339832620594431E-01
     2.495982420225500        0.1297475901973316E-01
     2.501480178860358        0.1255444902294893E-01
     2.506977937495216        0.1213734020538669E-01
     2.512475696130074        0.1172339184226715E-01
     2.517973454764932        0.1131259123789080E-01
     2.523471213399790        0.1090496600192881E-01
     2.528968972034647        0.1050059281249196E-01
     2.534466730669505        0.1009960149485085E-01
     2.539964489304364        0.9702174694430798E-02
     2.545462247939221        0.9308544120101661E-02
     2.550960006574079        0.8918984485115720E-02
     2.556457765208937        0.8533806146061529E-02
     2.561955523843795        0.8153347216785158E-02
     2.567453282478653        0.7777965708617541E-02
     2.572951041113511        0.7408032058472539E-02
     2.578448799748369        0.7043922261308795E-02
     2.583946558383227        0.6686011719225594E-02
     2.589444317018085        0.6334669848150936E-02
     2.594942075652943        0.5990255436482039E-02
     2.600439834287801        0.5653112721209371E-02
     2.605937592922658        0.5323568130464734E-02
     2.611435351557517        0.5001927633215652E-02
     2.616933110192374        0.4688474633911058E-02
     2.622430868827232        0.4383468350383410E-02
     2.627928627462090        0.4087142615779962E-02
     2.633426386096948        0.3799705048792763E-02
     2.638924144731806        0.3521336540301885E-02
     2.644421903366664        0.3252191008392231E-02
     2.649919662001522        0.2992395377040220E-02
     2.655417420636380        0.2742049736449565E-02
     2.660915179271238        0.2501227644648372E-02
     2.666412937906096        0.2269976530106624E-02
     2.671910696540954        0.2048318153195218E-02
     2.677408455175811        0.1836249079162847E-02
     2.682906213810670        0.1633741105044940E-02
     2.688403972445527        0.1440741564155010E-02
     2.693901731080385        0.1257173398026674E-02
     2.699399489715243        0.1082934823911696E-02
     2.704897248350101        0.9178983091692857E-03
     2.710395006984959        0.7619083308932918E-03
     2.715892765619817        0.6147769003834326E-03
     2.721390524254675        0.4762746598139807E-03
     2.726888282889533        0.3461122341596942E-03
     2.732386041524391        0.2238965673451495E-03
     2.737883800159249        0.1090049459721344E-03
     2.743381558794107         0.000000000000000    
  0  3  1  0  1.000000   #orbital l, n, z, is_polarized, population
 500    0.1897122227301919E-01     9.466639914236573     # npts, delta, cutoff
     0.000000000000000        0.6606889287849763    
    0.1897122227301919E-01    0.6602237404243839    
    0.3794244454603837E-01    0.6588591983822730    
    0.5691366681905756E-01    0.6565893762877364    
    0.7588488909207675E-01    0.6534208816349681    
    0.9485611136509593E-01    0.6493629504857462    
    0.1138273336381151        0.6444274296940838    
    0.1327985559111343        0.6386287534742170    
    0.1517697781841535        0.6319839125873488    
    0.1707410004571727        0.6245124149091036    
    0.1897122227301919        0.6162362361311314    