<preamble>

<basis_specs>
===============================================================================
Re                   Z=  75    Mass=  186.21        Charge= 0.17977+309
Lmxo=2 Lmxkb= 3    BasisType=split      Semic=T
L=0  Nsemic=1  Cnfigmx=6
          i=1  nzeta=1  polorb=0  (5s)  (semicore shell)
            splnorm:   0.15000    
               vcte:    40.000    
               rinn:    2.5318    
               qcoe:    0.0000    
               qyuk:    0.0000    
               qwid:   0.10000E-01
                rcs:    2.8103    
            lambdas:    1.0000    
          i=2  nzeta=2  polorb=0  (6s)  (to be polarized non-perturbatively)
            splnorm:   0.15000    
               vcte:    40.000    
               rinn:    6.1166    
               qcoe:    0.0000    
               qyuk:    0.0000    
               qwid:   0.10000E-01
                rcs:    6.7894      4.8393    
            lambdas:    1.0000      1.0000    
L=1  Nsemic=1  Cnfigmx=6
          i=1  nzeta=1  polorb=0  (5p)  (semicore shell)
            splnorm:   0.15000    
               vcte:    40.000    
               rinn:    3.0086    
               qcoe:    0.0000    
               qyuk:    0.0000    
               qwid:   0.10000E-01
                rcs:    3.3396    
            lambdas:    1.0000    
          i=2  nzeta=1  polorb=0  (6p)  (non-perturbative polarization shell)
            splnorm:   0.15000    
               vcte:    40.000    
               rinn:    6.1166    
               qcoe:    0.0000    
               qyuk:    0.0000    
               qwid:   0.10000E-01
                rcs:    6.7894    
            lambdas:    1.0000    
L=2  Nsemic=0  Cnfigmx=5
          i=1  nzeta=2  polorb=0  (5d)
            splnorm:   0.15000    
               vcte:    40.000    
               rinn:    5.1538    
               qcoe:    0.0000    
               qyuk:    0.0000    
               qwid:   0.10000E-01
                rcs:    5.7264      3.7970    
            lambdas:    1.0000      1.0000    
-------------------------------------------------------------------------------
L=0  Nkbl=2  erefs: 0.17977+309 0.17977+309
L=1  Nkbl=2  erefs: 0.17977+309 0.17977+309
L=2  Nkbl=1  erefs: 0.17977+309
L=3  Nkbl=1  erefs: 0.17977+309
===============================================================================
</basis_specs>

<pseudopotential_header>
 Re pb nrl pcec
 ONCVPSP-3.2017-10-31Hamann's oncvpsp                        
 5s 2.00  r= 1.61/5p 6.00  r= 1.61/5d 5.00  r= 1.61/5f 0.00  r= 2.02/   5s:5p:5d:6s:
</pseudopotential_header>
</preamble>
Re                            # Symbol
Re                            # Label
   75                         # Atomic number
     15.0000000000                             # Valence charge
     186.210000000        # Mass 
     226.085319779        # Self energy 
   2   7                      # Lmax for basis, no. of nl orbitals 
   3   8                      # Lmax for projectors, no. of nl KB projectors
# PAOs:__________________________
  0  5  1  0  2.000000   #orbital l, n, z, is_polarized, population
 500    0.5631787719702185E-02     2.810262072131390     # npts, delta, cutoff
     0.000000000000000        0.9756516114250168    
    0.5631787719702185E-02    0.9756923629461662    
    0.1126357543940437E-01    0.9758875647569369    
    0.1689536315910655E-01    0.9762127785243963    
    0.2252715087880874E-01    0.9766677663390143    
    0.2815893859851093E-01    0.9772522083210262    
    0.3379072631821311E-01    0.9779656956007892    
    0.3942251403791529E-01    0.9788077295436709    
    0.4505430175761748E-01    0.9797777218051226    
    0.5068608947731967E-01    0.9808749946142544    
    0.5631787719702185E-01    0.9820987811654520    
    0.6194966491672404E-01    0.9834482260850597    
    0.6758145263642622E-01    0.9849223859620169    
    0.7321324035612840E-01    0.9865202299380205    
    0.7884502807583059E-01    0.9882406403551972    
    0.8447681579553278E-01    0.9900824134601718    
    0.9010860351523496E-01    0.9920442601638497    
    0.9574039123493715E-01    0.9941248068563672    
    0.1013721789546393        0.9963225962767660    
    0.1070039666743415        0.9986360884369607    
    0.1126357543940437         1.001063661599556    
    0.1182675421137459         1.003603613309094    
    0.1238993298334481         1.006254161476248    
    0.1295311175531502         1.009013445514488    
    0.1351629052728524         1.011879527528694    
    0.1407946929925546         1.014850393555194    
    0.1464264807122568         1.017923954852616    
    0.1520582684319590         1.021098049242975    
    0.1576900561516612         1.024370442502350    
    0.1633218438713634         1.027738829800454    
    0.1689536315910656         1.031200837188404    
    0.1745854193107677         1.034754023133930    
    0.1802172070304699         1.038395880103238    
    0.1858489947501721         1.042123836188703    
    0.1914807824698743         1.045935256781523    
    0.1971125701895765         1.049827446288431    
    0.2027443579092787         1.053797649891519    
    0.2083761456289809         1.057843055350182    
    0.2140079333486830         1.061960794844173    
    0.2196397210683852         1.066147946856668    
    0.2252715087880874         1.070401538096262    
    0.2309032965077896         1.074718545456723    
    0.2365350842274918         1.079095898013304    
    0.2421668719471940         1.083530479054399    
    0.2477986596668962         1.088019128147225    
    0.2534304473865983         1.092558643236235    
    0.2590622351063005         1.097145782772889    
    0.2646940228260027         1.101777267875360    
    0.2703258105457049         1.106449784516744    
    0.2759575982654071         1.111159985740273    
    0.2815893859851092         1.115904493899996    
    0.2872211737048114         1.120679902925360    
    0.2928529614245136         1.125482780608094    
    0.2984847491442158         1.130309670909710    
    0.3041165368639180         1.135157096287979    
    0.3097483245836202         1.140021560040620    
    0.3153801123033224         1.144899548664484    
    0.3210119000230245         1.149787534228401    
    0.3266436877427267         1.154681976757897    
    0.3322754754624289         1.159579326629922    
    0.3379072631821311         1.164476026975693    
    0.3435390509018333         1.169368516089762    
    0.3491708386215355         1.174253229843364    
    0.3548026263412377         1.179126604100081    
    0.3604344140609398         1.183985077131867    
    0.3660662017806420         1.188825092033407    
    0.3716979895003442         1.193643099132820    
    0.3773297772200464         1.198435558396656    
    0.3829615649397486         1.203198941827169    
    0.3885933526594508         1.207929735849801    
    0.3942251403791530         1.212624443688809    
    0.3998569280988551         1.217279587729013    
    0.4054887158185573         1.221891711861550    
    0.4111205035382595         1.226457383811612    
    0.4167522912579617         1.230973197446104    
    0.4223840789776639         1.235435775059132    
    0.4280158666973661         1.239841769633348    
    0.4336476544170683         1.244187867075060    
    0.4392794421367704         1.248470788421123    
    0.4449112298564726         1.252687292015612    
    0.4505430175761748         1.256834175654311    
    0.4561748052958770         1.260908278695045    
    0.4618065930155792         1.264906484131957    
    0.4674383807352814         1.268825720631833    
    0.4730701684549836         1.272662964530608    
    0.4787019561746857         1.276415241788232    
    0.4843337438943879         1.280079629900132    
    0.4899655316140901         1.283653259763494    
    0.4955973193337923         1.287133317496714    
    0.5012291070534944         1.290517046210319    
    0.5068608947731966         1.293801747727812    
    0.5124926824928988         1.296984784254840    
    0.5181244702126010         1.300063579995246    
    0.5237562579323032         1.303035622712540    
    0.5293880456520054         1.305898465235428    
    0.5350198333717076         1.308649726906090    
    0.5406516210914097         1.311287094969960    
    0.5462834088111119         1.313808325905827    
    0.5519151965308141         1.316211246695157    
    0.5575469842505163         1.318493756029593    
    0.5631787719702185         1.320653825455655    
    0.5688105596899207         1.322689500455781    
    0.5744423474096229         1.324598901464838    
    0.5800741351293250         1.326380224821446    
    0.5857059228490272         1.328031743653343    
    0.5913377105687294         1.329551808696322    
    0.5969694982884316         1.330938849046167    
    0.6026012860081338         1.332191372843181    
    0.6082330737278360         1.333307967888980    
    0.6138648614475382         1.334287302195286    
    0.6194966491672403         1.335128124464557    
    0.6251284368869425         1.335829264502329    
    0.6307602246066447         1.336389633561296    
    0.6363920123263469         1.336808224617197    
    0.6420238000460491         1.337084112576635    
    0.6476555877657513         1.337216454417095    
    0.6532873754854535         1.337204489259477    
    0.6589191632051556         1.337047538373521    
    0.6645509509248578         1.336745005116620    
    0.6701827386445600         1.336296374806583    
    0.6758145263642622         1.335701214528956    
    0.6814463140839644         1.334959172879633    
    0.6870781018036666         1.334069979643536    
    0.6927098895233688         1.333033445410229    
    0.6983416772430709         1.331849461127361    
    0.7039734649627731         1.330517997592976    
    0.7096052526824753         1.329039104887735    
    0.7152370404021775         1.327412911748183    
    0.7208688281218797         1.325639624882246    
    0.7265006158415819         1.323719528228227    
    0.7321324035612841         1.321652982158598    
    0.7377641912809862         1.319440422629955    
    0.7433959790006884         1.317082360280570    
    0.7490277667203906         1.314579379476988    
    0.7546595544400928         1.311932137311219    
    0.7602913421597950         1.309141362550043    
    0.7659231298794972         1.306207854538062    
    0.7715549175991994         1.303132482056142    
    0.7771867053189015         1.299916182136899    
    0.7828184930386037         1.296559958838959    
    0.7884502807583059         1.293064881981732    
    0.7940820684780081         1.289432085842450    
    0.7997138561977103         1.285662767817267    
    0.8053456439174125         1.281758187048233    
    0.8109774316371147         1.277719663017961    
    0.8166092193568169         1.273548574113820    
    0.8222410070765190         1.269246356155870    
    0.8278727947962212         1.264814504693799    
    0.8335045825159234         1.260254564249056    
    0.8391363702356256         1.255568131769045    
    0.8447681579553278         1.250756857691971    
    0.8503999456750300         1.245822442209999    
    0.8560317333947322         1.240766633672120    
    0.8616635211144343         1.235591226971386    
    0.8672953088341365         1.230298061918304    
    0.8729270965538387         1.224889021602193    
    0.8785588842735409         1.219366030742304    
    0.8841906719932431         1.213731054030475    
    0.8898224597129453         1.207986094467036    
    0.8954542474326475         1.202133191691679    
    0.9010860351523496         1.196174420310994    
    0.9067178228720518         1.190111888224284    
    0.9123496105917540         1.183947734949327    
    0.9179813983114562         1.177684129949622    
    0.9236131860311584         1.171323270964691    
    0.9292449737508606         1.164867382344923    
    0.9348767614705628         1.158318713392437    
    0.9405085491902649         1.151679536709373    
    0.9461403369099671         1.144952146555006    
    0.9517721246296693         1.138138857213005    
    0.9574039123493715         1.131242001370119    
    0.9630357000690737         1.124263928507522    
    0.9686674877887759         1.117207003306044    
    0.9742992755084781         1.110073604066374    
    0.9799310632281802         1.102866121145388    
    0.9855628509478824         1.095586955409570    
    0.9911946386675846         1.088238516706598    
    0.9968264263872868         1.080823222355967    
     1.002458214106989         1.073343495659581    
     1.008090001826691         1.065801764433117    
     1.013721789546393         1.058200459558983    
     1.019353577266096         1.050542013561577    
     1.024985364985798         1.042828859205544    
     1.030617152705500         1.035063428117661    
     1.036248940425202         1.027248149432937    
     1.041880728144904         1.019385448465484    
     1.047512515864606         1.011477745404608    
     1.053144303584309         1.003527454036601    
     1.058776091304011        0.9955369804925721    
     1.064407879023713        0.9875087220227537    
     1.070039666743415        0.9794450657974839    
     1.075671454463117        0.9713483877352331    
     1.081303242182819        0.9632210513578043    
     1.086935029902522        0.9550654066729372    
     1.092566817622224        0.9468837890844546    
     1.098198605341926        0.9386785183300078    
     1.103830393061628        0.9304518974465776    
     1.109462180781331        0.9222062117636359    
     1.115093968501033        0.9139437279241086    
     1.120725756220735        0.9056666929329543    
     1.126357543940437        0.8973773332334388    
     1.131989331660139        0.8890778538109437    
     1.137621119379841        0.8807704373241740    
     1.143252907099544        0.8724572432636767    
     1.148884694819246        0.8641404071373870    
     1.154516482538948        0.8558220396832226    
     1.160148270258650        0.8475042261083370    
     1.165780057978352        0.8391890253548651    
     1.171411845698054        0.8308784693919405    
     1.177043633417757        0.8225745625336314    
     1.182675421137459        0.8142792807827141    
     1.188307208857161        0.8059945711998147    
     1.193938996576863        0.7977223512977174    
     1.199570784296565        0.7894645084605367    
     1.205202572016268        0.7812228993873831    
     1.210834359735970        0.7729993495603132    
     1.216466147455672        0.7647956527361559    
     1.222097935175374        0.7566135704619260    
     1.227729722895076        0.7484548316135234    
     1.233361510614779        0.7403211319573543    
     1.238993298334481        0.7322141337345713    
     1.244625086054183        0.7241354652676167    
     1.250256873773885        0.7160867205887330    
     1.255888661493587        0.7080694590901426    
     1.261520449213289        0.7000852051956061    
     1.267152236932992        0.6921354480529885    
     1.272784024652694        0.6842216412475656    
     1.278415812372396        0.6763452025358254    
     1.284047600092098        0.6685075135993911    
     1.289679387811800        0.6607099198188578    
     1.295311175531503        0.6529537300672763    
     1.300942963251205        0.6452402165229139    
     1.306574750970907        0.6375706145012060    
     1.312206538690609        0.6299461223055219    
     1.317838326410311        0.6223679010965270    
     1.323470114130014        0.6148370747800380    
     1.329101901849716        0.6073547299129647    
     1.334733689569418        0.5999219156272351    
     1.340365477289120        0.5925396435716055    
     1.345997265008822        0.5852088878708980    
     1.351629052728524        0.5779305851027418    
     1.357260840448227        0.5707056342915912    
     1.362892628167929        0.5635348969196617    
     1.368524415887631        0.5564191969548959    
     1.374156203607333        0.5493593208956813    
     1.379787991327035        0.5423560178321097    
     1.385419779046738        0.5354099995238067    
     1.391051566766440        0.5285219404941010    
     1.396683354486142        0.5216924781403021    
     1.402315142205844        0.5149222128602056    
     1.407946929925546        0.5082117081945179    
     1.413578717645249        0.5015614909851213    
     1.419210505364951        0.4949720515491509    
     1.424842293084653        0.4884438438686851    
     1.430474080804355        0.4819772857958881    
     1.436105868524057        0.4755727592736649    
     1.441737656243759        0.4692306105715611    
     1.447369443963461        0.4629511505368354    
     1.453001231683164        0.4567346548606417    
     1.458633019402866        0.4505813643591568    
     1.464264807122568        0.4444914852694830    
     1.469896594842270        0.4384651895603056    
     1.475528382561972        0.4325026152571168    
     1.481160170281675        0.4266038667818274    
     1.486791958001377        0.4207690153067102    
     1.492423745721079        0.4149980991224789    
     1.498055533440781        0.4092911240203099    
     1.503687321160483        0.4036480636877064    
     1.509319108880186        0.3980688601180018    
     1.514950896599888        0.3925534240333031    
     1.520582684319590        0.3871016353206880    
     1.526214472039292        0.3817133434814711    
     1.531846259758994        0.3763883680933494    
     1.537478047478696        0.3711264992851849    
     1.543109835198399        0.3659274982243833    
     1.548741622918101        0.3607910976157215    
     1.554373410637803        0.3557170022077101    
     1.560005198357505        0.3507048892215788    
     1.565636986077207        0.3457544089377670    
     1.571268773796910        0.3408651854802117    
     1.576900561516612        0.3360368175990439    
     1.582532349236314        0.3312688793711370    
     1.588164136956016        0.3265609194567579    
     1.593795924675718        0.3219124610123671    
     1.599427712395421        0.3173230019459471    
     1.605059500115123        0.3127920177844807    
     1.610691287834825        0.3083189657228707    
     1.616323075554527        0.3039032888319454    
     1.621954863274229        0.2995444204732576    
     1.627586650993931        0.2952417886581704    
     1.633218438713634        0.2909948197524849    
     1.638850226433336        0.2868029418984438    
     1.644482014153038        0.2826655851380296    
     1.650113801872740        0.2785821811162509    
     1.655745589592442        0.2745521621266594    
     1.661377377312145        0.2705749607774324    
     1.667009165031847        0.2666500106338481    
     1.672640952751549        0.2627767465303766    
     1.678272740471251        0.2589546049648845    
     1.683904528190953        0.2551830242197771    
     1.689536315910656        0.2514614444816937    
     1.695168103630358        0.2477893080033024    
     1.700799891350060        0.2441660592591580    
     1.706431679069762        0.2405911450872543    
     1.712063466789464        0.2370640148312119    
     1.717695254509166        0.2335841204696796    
     1.723327042228869        0.2301509167433953    
     1.728958829948571        0.2267638612731707    
     1.734590617668273        0.2234224146715156    
     1.740222405387975        0.2201260406484178    
     1.745854193107677        0.2168742061109256    
     1.751485980827379        0.2136663812572100    
     1.757117768547082        0.2105020396649231    
     1.762749556266784        0.2073806583742517    
     1.768381343986486        0.2043017179658776    
     1.774013131706188        0.2012647026339116    
     1.779644919425891        0.1982691002539032    
     1.785276707145593        0.1953144024464432    
     1.790908494865295        0.1924001046362372    
     1.796540282584997        0.1895257061069129    
     1.802172070304699        0.1866907100515549    
     1.807803858024401        0.1838946236195291    
     1.813435645744104        0.1811369579593449    
     1.819067433463806        0.1784172282578747    
     1.824699221183508        0.1757349537759222    
     1.830331008903210        0.1730896578806407    
     1.835962796622912        0.1704808680745309    
     1.841594584342614        0.1679081160213168    
     1.847226372062317        0.1653709375687551    
     1.852858159782019        0.1628688727687275    
     1.858489947501721        0.1604014658944375    
     1.864121735221423        0.1579682654549250    
     1.869753522941126        0.1555688242070199    
     1.875385310660828        0.1532026991649745    
     1.881017098380530        0.1508694516076456    
     1.886648886100232        0.1485686470833982    
     1.892280673819934        0.1462998554128680    
     1.897912461539636        0.1440626506897639    
     1.903544249259339        0.1418566112796071    
     1.909176036979041        0.1396813198165492    
     1.914807824698743        0.1375363631984027    
     1.920439612418445        0.1354213325800359    
     1.926071400138147        0.1333358233650419    
     1.931703187857849        0.1312794351958095    
     1.937334975577552        0.1292517719420799    
     1.942966763297254        0.1272524416881948    
     1.948598551016956        0.1252810567188778    
     1.954230338736658        0.1233372335037243    
     1.959862126456360        0.1214205926803946    
     1.965493914176063        0.1195307590367914    
     1.971125701895765        0.1176673614919997    
     1.976757489615467        0.1158300330762000    
     1.982389277335169        0.1140184109094681    
     1.988021065054871        0.1122321361798155    
     1.993652852774574        0.1104708541201944    
     1.999284640494276        0.1087342139846960    
     2.004916428213978        0.1070218690238183    
     2.010548215933680        0.1053334764591594    
     2.016180003653382        0.1036686974572812    
     2.021811791373084        0.1020271971029328    
     2.027443579092786        0.1004086443715416    
     2.033075366812489        0.9881271210123031E-01
     2.038707154532191        0.9723907696423070E-01
     2.044338942251893        0.9568741943776651E-01
     2.049970729971595        0.9415742377442621E-01
     2.055602517691298        0.9264877797207335E-01
     2.061234305411000        0.9116117374340979E-01
     2.066866093130702        0.8969430648507691E-01
     2.072497880850404        0.8824787524642948E-01
     2.078129668570107        0.8682158269788907E-01
     2.083761456289809        0.8541513509913103E-01
     2.089393244009511        0.8402824226690089E-01
     2.095025031729213        0.8266061754260816E-01
     2.100656819448915        0.8131197775964395E-01
     2.106288607168617        0.7998204321054737E-01
     2.111920394888319        0.7867053761397705E-01
     2.117552182608021        0.7737718808151085E-01
     2.123183970327724        0.7610172508430778E-01
     2.128815758047426        0.7484388241961770E-01
     2.134447545767128        0.7360339717725577E-01
     2.140079333486830        0.7238000970594631E-01
     2.145711121206533        0.7117346357961596E-01
     2.151342908926235        0.6998350556362097E-01
     2.156974696645937        0.6880988558096202E-01
     2.162606484365639        0.6765235667847661E-01
     2.168238272085341        0.6651067499302556E-01
     2.173870059805044        0.6538459971769373E-01
     2.179501847524746        0.6427389306799965E-01
     2.185133635244448        0.6317832024817292E-01
     2.190765422964150        0.6209764941746287E-01
     2.196397210683852        0.6103165165651048E-01
     2.202028998403554        0.5998010093380042E-01
     2.207660786123256        0.5894277407219199E-01
     2.213292573842959        0.5791945071553954E-01
     2.218924361562661        0.5690991329542234E-01
     2.224556149282363        0.5591394699798156E-01
     2.230187937002065        0.5493133973089613E-01
     2.235819724721767        0.5396188209046263E-01
     2.241451512441470        0.5300536732882782E-01
     2.247083300161172        0.5206159132136183E-01
     2.252715087880874        0.5113035253417764E-01
     2.258346875600576        0.5021145199184763E-01
     2.263978663320279        0.4930469324521938E-01
     2.269610451039981        0.4840988233944694E-01
     2.275242238759683        0.4752682778218353E-01
     2.280874026479385        0.4665534051196187E-01
     2.286505814199087        0.4579523386678053E-01
     2.292137601918789        0.4494632355282860E-01
     2.297769389638491        0.4410842761344585E-01
     2.303401177358193        0.4328136639826453E-01
     2.309032965077896        0.4246496253257855E-01
     2.314664752797598        0.4165904088690980E-01
     2.320296540517300        0.4086342854674915E-01
     2.325928328237002        0.4007795478254769E-01
     2.331560115956705        0.3930245101990147E-01
     2.337191903676407        0.3853675080999204E-01
     2.342823691396109        0.3778068980021248E-01
     2.348455479115811        0.3703410570500280E-01
     2.354087266835514        0.3629683827693671E-01
     2.359719054555216        0.3556872927801095E-01
     2.365350842274918        0.3484962245121062E-01
     2.370982629994620        0.3413936349225183E-01
     2.376614417714322        0.3343780002155121E-01
     2.382246205434024        0.3274478155645053E-01
     2.387877993153726        0.3206015948364913E-01
     2.393509780873428        0.3138378703191558E-01
     2.399141568593131        0.3071551924498353E-01
     2.404773356312833        0.3005521295467357E-01
     2.410405144032535        0.2940272675427326E-01
     2.416036931752237        0.2875792097212910E-01
     2.421668719471940        0.2812065764550703E-01
     2.427300507191642        0.2749080049465998E-01
     2.432932294911344        0.2686821489709579E-01
     2.438564082631046        0.2625276786211711E-01
     2.444195870350748        0.2564432800557013E-01
     2.449827658070451        0.2504276552484059E-01
     2.455459445790153        0.2444795217408977E-01
     2.461091233509855        0.2385976123965676E-01
     2.466723021229557        0.2327806751573916E-01
     2.472354808949259        0.2270274728028392E-01
     2.477986596668961        0.2213367827109443E-01
     2.483618384388663        0.2157073966221872E-01
     2.489250172108366        0.2101381204045561E-01
     2.494881959828068        0.2046277738215308E-01
     2.500513747547770        0.1991751903020768E-01
     2.506145535267472        0.1937792167126510E-01
     2.511777322987175        0.1884387131320067E-01
     2.517409110706877        0.1831525526272161E-01
     2.523040898426579        0.1779196210323344E-01
     2.528672686146281        0.1727388167290975E-01
     2.534304473865983        0.1676090504296054E-01
     2.539936261585686        0.1625292449613613E-01
     2.545568049305388        0.1574983350540996E-01
     2.551199837025090        0.1525152671446804E-01
     2.556831624744792        0.1475790000897505E-01
     2.562463412464494        0.1426885162040886E-01
     2.568095200184196        0.1378428706485773E-01
     2.573726987903898        0.1330413001138446E-01
     2.579358775623601        0.1282833704964632E-01
     2.584990563343303        0.1235691187302896E-01
     2.590622351063005        0.1188991534501187E-01
     2.596254138782707        0.1142747010625406E-01
     2.601885926502410        0.1096976006558673E-01
     2.607517714222112        0.1051702592372727E-01
     2.613149501941814        0.1006955804840732E-01
     2.618781289661516        0.9627687866805930E-02
     2.624413077381218        0.9191778677887494E-02
     2.630044865100921        0.8762216522847381E-02
     2.635676652820623        0.8339401530212436E-02
     2.641308440540325        0.7923739983098470E-02
     2.646940228260027        0.7515637235125366E-02
     2.652572015979729        0.7115491518846907E-02
     2.658203803699431        0.6723688636835655E-02
     2.663835591419133        0.6340597492489801E-02
     2.669467379138836        0.5966566398807850E-02
     2.675099166858538        0.5601920094203558E-02
     2.680730954578240        0.5246957391439452E-02
     2.686362742297942        0.4901949386649993E-02
     2.691994530017645        0.4567138158575432E-02
     2.697626317737347        0.4242735892449855E-02
     2.703258105457049        0.3928924367682748E-02
     2.708889893176751        0.3625854753116557E-02
     2.714521680896453        0.3333647657735985E-02
     2.720153468616155        0.3052393387993605E-02
     2.725785256335858        0.2782152365000823E-02
     2.731417044055560        0.2522955655254739E-02
     2.737048831775262        0.2274805566577097E-02
     2.742680619494964        0.2037676255348608E-02
     2.748312407214666        0.1811514279771073E-02
     2.753944194934368        0.1596239012958153E-02
     2.759575982654071        0.1391742791828509E-02
     2.765207770373773        0.1197890608545045E-02
     2.770839558093475        0.1014519020114719E-02
     2.776471345813177        0.8414336900453027E-03
     2.782103133532880        0.6784044153969272E-03
     2.787734921252582        0.5251551745045415E-03
     2.793366708972284        0.3813432164505704E-03
     2.798998496691986        0.2465100129350637E-03
     2.804630284411688        0.1199395869698079E-03
     2.810262072131390         0.000000000000000    
  0  6  1  0  2.000000   #orbital l, n, z, is_polarized, population
 500    0.1360594990324882E-01     6.789369001721162     # npts, delta, cutoff
     0.000000000000000        0.6393883280515695    
    0.1360594990324882E-01    0.6395082785217243    