<preamble>

<basis_specs>
===============================================================================
Rh                   Z=  45    Mass=  102.91        Charge= 0.17977+309
Lmxo=2 Lmxkb= 2    BasisType=split      Semic=T
L=0  Nsemic=1  Cnfigmx=5
          i=1  nzeta=1  polorb=0  (4s)  (semicore shell)
            splnorm:   0.15000    
               vcte:    40.000    
               rinn:    2.4790    
               qcoe:    0.0000    
               qyuk:    0.0000    
               qwid:   0.10000E-01
                rcs:    2.7544    
            lambdas:    1.0000    
          i=2  nzeta=2  polorb=0  (5s)  (to be polarized non-perturbatively)
            splnorm:   0.15000    
               vcte:    40.000    
               rinn:    7.0371    
               qcoe:    0.0000    
               qyuk:    0.0000    
               qwid:   0.10000E-01
                rcs:    7.8111      5.6241    
            lambdas:    1.0000      1.0000    
L=1  Nsemic=1  Cnfigmx=5
          i=1  nzeta=1  polorb=0  (4p)  (semicore shell)
            splnorm:   0.15000    
               vcte:    40.000    
               rinn:    2.8187    
               qcoe:    0.0000    
               qyuk:    0.0000    
               qwid:   0.10000E-01
                rcs:    3.1319    
            lambdas:    1.0000    
          i=2  nzeta=1  polorb=0  (5p)  (non-perturbative polarization shell)
            splnorm:   0.15000    
               vcte:    40.000    
               rinn:    7.0371    
               qcoe:    0.0000    
               qyuk:    0.0000    
               qwid:   0.10000E-01
                rcs:    7.8111    
            lambdas:    1.0000    
L=2  Nsemic=0  Cnfigmx=4
          i=1  nzeta=2  polorb=0  (4d)
            splnorm:   0.15000    
               vcte:    40.000    
               rinn:    4.6345    
               qcoe:    0.0000    
               qyuk:    0.0000    
               qwid:   0.10000E-01
                rcs:    5.1494      3.2897    
            lambdas:    1.0000      1.0000    
-------------------------------------------------------------------------------
L=0  Nkbl=2  erefs: 0.17977+309 0.17977+309
L=1  Nkbl=2  erefs: 0.17977+309 0.17977+309
L=2  Nkbl=1  erefs: 0.17977+309
===============================================================================
</basis_specs>

<pseudopotential_header>
 Rh pb nrl pcec
 ONCVPSP-3.2017-10-31Hamann's oncvpsp                        
 4s 2.00  r= 1.41/4p 6.00  r= 1.41/4d 8.00  r= 1.36/                    4s:4p:4d:5s:
</pseudopotential_header>
</preamble>
Rh                            # Symbol
Rh                            # Label
   45                         # Atomic number
     17.0000000000                             # Valence charge
     102.910000000        # Mass 
     348.854016687        # Self energy 
   2   7                      # Lmax for basis, no. of nl orbitals 
   2   6                      # Lmax for projectors, no. of nl KB projectors
# PAOs:__________________________
  0  4  1  0  2.000000   #orbital l, n, z, is_polarized, population
 500    0.5519874031023143E-02     2.754417141480549     # npts, delta, cutoff
     0.000000000000000        0.4127830548355921    
    0.5519874031023143E-02    0.4129520268701782    
    0.1103974806204629E-01    0.4134938068446059    
    0.1655962209306943E-01    0.4143963337451417    
    0.2207949612409257E-01    0.4156589219606512    
    0.2759937015511572E-01    0.4172806188591302    
    0.3311924418613886E-01    0.4192602021214136    
    0.3863911821716200E-01    0.4215961803477042    
    0.4415899224818515E-01    0.4242867942869388    
    0.4967886627920829E-01    0.4273300183932267    
    0.5519874031023143E-01    0.4307235626487588    
    0.6071861434125458E-01    0.4344648746351484    
    0.6623848837227772E-01    0.4385511418456076    
    0.7175836240330086E-01    0.4429792942333987    
    0.7727823643432401E-01    0.4477460069929238    
    0.8279811046534716E-01    0.4528477035700523    
    0.8831798449637029E-01    0.4582805588982259    
    0.9383785852739343E-01    0.4640405028567611    
    0.9935773255841658E-01    0.4701232239475684    
    0.1048776065894397        0.4765241731863049    
    0.1103974806204629        0.4832385682037692    
    0.1159173546514860        0.4902613975531321    
    0.1214372286825092        0.4975874252183885    
    0.1269571027135323        0.5052111953191988    
    0.1324769767445554        0.5131270370071007    
    0.1379968507755786        0.5213290695478670    
    0.1435167248066017        0.5298112075845878    
    0.1490365988376249        0.5385671665758809    
    0.1545564728686480        0.5475904684034505    
    0.1600763468996712        0.5568744471430329    
    0.1655962209306943        0.5664122549926190    
    0.1711160949617175        0.5761968683516722    
    0.1766359689927406        0.5862210940449030    
    0.1821558430237637        0.5964775756840500    
    0.1876757170547869        0.6069588001609203    
    0.1931955910858100        0.6176571042648885    
    0.1987154651168332        0.6285646814178623    
    0.2042353391478563        0.6396735885196631    
    0.2097552131788795        0.6509757528966338    
    0.2152750872099026        0.6624629793461976    
    0.2207949612409257        0.6741269572700228    
    0.2263148352719489        0.6859592678883246    
    0.2318347093029720        0.6979513915278319    
    0.2373545833339952        0.7100947149758008    
    0.2428744573650183        0.7223805388925069    
    0.2483943313960414        0.7348000852744808    
    0.2539142054270646        0.7473445049608531    
    0.2594340794580877        0.7600048851750209    
    0.2649539534891109        0.7727722570939248    
    0.2704738275201340        0.7856376034371834    
    0.2759937015511572        0.7985918660683128    
    0.2815135755821803        0.8116259536003021    
    0.2870334496132034        0.8247307489978291    
    0.2925533236442266        0.8378971171684197    
    0.2980731976752498        0.8511159125348821    
    0.3035930717062729        0.8643779865814283    
    0.3091129457372960        0.8776741953659236    
    0.3146328197683192        0.8909954069907513    
    0.3201526937993423        0.9043325090249202    
    0.3256725678303655        0.9176764158700381    
    0.3311924418613886        0.9310180760629281    
    0.3367123158924117        0.9443484795077376    
    0.3422321899234349        0.9576586646304933    
    0.3477520639544580        0.9709397254491845    
    0.3532719379854812        0.9841828185525642    
    0.3587918120165043        0.9973791699809955    
    0.3643116860475274         1.010520082002813    
    0.3698315600785506         1.023596939779800    
    0.3753514341095737         1.036601217915554    
    0.3808713081405969         1.049524486880658    
    0.3863911821716201         1.062358419308728    
    0.3919110562026432         1.075094796157629    
    0.3974309302336663         1.087725512730280    
    0.4029508042646895         1.100242584549668    
    0.4084706782957126         1.112638153082895    
    0.4139905523267358         1.124904491309270    
    0.4195104263577589         1.137034009127660    
    0.4250303003887820         1.149019258598528    
    0.4305501744198052         1.160852939016261    
    0.4360700484508283         1.172527901807680    
    0.4415899224818515         1.184037155252782    
    0.4471097965128746         1.195373869023979    
    0.4526296705438977         1.206531378540434    
    0.4581495445749209         1.217503189134146    
    0.4636694186059440         1.228282980024859    
    0.4691892926369672         1.238864608100984    
    0.4747091666679903         1.249242111503982    
    0.4802290406990135         1.259409713013940    
    0.4857489147300366         1.269361823234292    
    0.4912687887610598         1.279093043573859    
    0.4967886627920829         1.288598169024640    
    0.5023085368231061         1.297872190734092    
    0.5078284108541292         1.306910298370762    
    0.5133482848851524         1.315707882282496    
    0.5188681589161754         1.324260535446642    
    0.5243880329471986         1.332564055211897    
    0.5299079069782218         1.340614444831765    
    0.5354277810092449         1.348407914789720    
    0.5409476550402681         1.355940883916528    
    0.5464675290712911         1.363209980300357    
    0.5519874031023143         1.370212041990554    
    0.5575072771333375         1.376944117496202    
    0.5630271511643606         1.383403466080820    
    0.5685470251953838         1.389587557854786    
    0.5740668992264069         1.395494073667250    
    0.5795867732574300         1.401120904799656    
    0.5851066472884532         1.406466152463000    
    0.5906265213194763         1.411528127101410    
    0.5961463953504995         1.416305347504613    
    0.6016662693815227         1.420796539732245    
    0.6071861434125457         1.425000635853019    
    0.6127060174435689         1.428916772502077    
    0.6182258914745921         1.432544289259935    
    0.6237457655056152         1.435882726856704    
    0.6292656395366384         1.438931825205378    
    0.6347855135676614         1.441691521268189    
    0.6403053875986846         1.444161946760175    
    0.6458252616297078         1.446343425694284    
    0.6513451356607309         1.448236471772462    
    0.6568650096917541         1.449841785627346    
    0.6623848837227773         1.451160251919272    
    0.6679047577538003         1.452192936293483    
    0.6734246317848235         1.452941082202537    
    0.6789445058158466         1.453406107599000    
    0.6844643798468698         1.453589601503642    
    0.6899842538778930         1.453493320454421    
    0.6955041279089160         1.453119184841677    
    0.7010240019399392         1.452469275135014    
    0.7065438759709624         1.451545828007369    
    0.7120637500019855         1.450351232361947    
    0.7175836240330087         1.448888025267667    
    0.7231034980640317         1.447158887808829    
    0.7286233720950549         1.445166640854757    
    0.7341432461260781         1.442914240755252    
    0.7396631201571012         1.440404774967617    
    0.7451829941881244         1.437641457621125    
    0.7507028682191474         1.434627625024753    
    0.7562227422501706         1.431366731124012    
    0.7617426162811938         1.427862342912708    
    0.7672624903122169         1.424118135805456    
    0.7727823643432401         1.420137888976707    
    0.7783022383742633         1.415925480672062    
    0.7838221124052863         1.411484883497575    
    0.7893419864363095         1.406820159692706    
    0.7948618604673326         1.401935456542898    
    0.8003817344983558         1.396835001966988    
    0.8059016085293790         1.391523097869657    
    0.8114214825604020         1.386004117620021    
    0.8169413565914252         1.380282500535539    
    0.8224612306224484         1.374362747170626    
    0.8279811046534715         1.368249414628111    
    0.8335009786844947         1.361947111897049    
    0.8390208527155179         1.355460495221750    
    0.8445407267465409         1.348794263506848    
    0.8500606007775641         1.341953153763080    
    0.8555804748085872         1.334941936598315    
    0.8611003488396104         1.327765411758230    
    0.8666202228706336         1.320428403720932    
    0.8721400969016566         1.312935757349643    
    0.8776599709326798         1.305292333607452    
    0.8831798449637029         1.297503005337928    
    0.8886997189947261         1.289572653115344    
    0.8942195930257493         1.281506161167986    
    0.8997394670567723         1.273308413377956    
    0.9052593410877955         1.264984289360624    
    0.9107792151188187         1.256538660626838    
    0.9162990891498418         1.247976386830680    
    0.9218189631808650         1.239302312105575    
    0.9273388372118880         1.230521261491154    
    0.9328587112429112         1.221638037453384    
    0.9383785852739344         1.212657416499972    
    0.9438984593049575         1.203584145893254    
    0.9494183333359807         1.194422940462192    
    0.9549382073670039         1.185178479515359    
    0.9604580813980269         1.175855403856181    
    0.9659779554290501         1.166458312901953    
    0.9714978294600732         1.156991761907547    
    0.9770177034910964         1.147460259295037    
    0.9825375775221196         1.137868264089759    
    0.9880574515531426         1.128220183463682    
    0.9935773255841658         1.118520370386316    
    0.9990971996151889         1.108773121383650    
     1.004617073646212         1.098982674405113    
     1.010136947677235         1.089153206798577    
     1.015656821708258         1.079288833393192    
     1.021176695739282         1.069393604689671    
     1.026696569770305         1.059471505157699    
     1.032216443801328         1.049526451639516    
     1.037736317832351         1.039562291859268    
     1.043256191863374         1.029582803036719    
     1.048776065894397         1.019591690604825    
     1.054295939925420         1.009592587029430    
     1.059815813956444        0.9995890507301792    
     1.065335687987467        0.9895845651009488    
     1.070855562018490        0.9795825376283143    
     1.076375436049513        0.9695862991065111    
     1.081895310080536        0.9595991029467686    
     1.087415184111559        0.9496241245796526    
     1.092935058142582        0.9396644609478308    
     1.098454932173605        0.9297231300877870    
     1.103974806204629        0.9198030707978861    
     1.109494680235652        0.9099071423907812    
     1.115014554266675        0.9000381245279289    
     1.120534428297698        0.8901987171335016    
     1.126054302328721        0.8803915403857999    
     1.131574176359744        0.8706191347831164    
     1.137094050390768        0.8608839612819553    
     1.142613924421791        0.8511884015048312    
     1.148133798452814        0.8415347580149551    
     1.153653672483837        0.8319252546555017    
     1.159173546514860        0.8223620369503398    
     1.164693420545883        0.8128471725639148    
     1.170213294576906        0.8033826518173790    
     1.175733168607930        0.7939703882582386    
     1.181253042638953        0.7846122192810410    
     1.186772916669976        0.7753099067960599    
     1.192292790700999        0.7660651379435661    
     1.197812664732022        0.7568795258508542    
     1.203332538763045        0.7477546104293196    
     1.208852412794068        0.7386918592091282    
     1.214372286825091        0.7296926682086488    
     1.219892160856115        0.7207583628362221    
     1.225412034887138        0.7118901988216856    
     1.230931908918161        0.7030893631751457    
     1.236451782949184        0.6943569751705509    
     1.241971656980207        0.6856940873516856    
     1.247491531011230        0.6771016865582689    
     1.253011405042254        0.6685806949697927    
     1.258531279073277        0.6601319711650383    
     1.264051153104300        0.6517563111949719    
     1.269571027135323        0.6434544496669823    
     1.275090901166346        0.6352270608386185    
     1.280610775197369        0.6270747597185869    
     1.286130649228392        0.6189981031734160    
     1.291650523259416        0.6109975910380404    
     1.297170397290439        0.6030736672283026    
     1.302690271321462        0.5952267208541904    
     1.308210145352485        0.5874570873320569    
     1.313730019383508        0.5797650494941110    
     1.319249893414531        0.5721508386949511    
     1.324769767445555        0.5646146359124583    
     1.330289641476577        0.5571565728418757    
     1.335809515507601        0.5497767329849639    
     1.341329389538624        0.5424751527287464    
     1.346849263569647        0.5352518224162655    
     1.352369137600670        0.5281066874061294    
     1.357889011631693        0.5210396491232584    
     1.363408885662716        0.5140505660672799    
     1.368928759693740        0.5071392547606003    
     1.374448633724763        0.5003054909861098    
     1.379968507755786        0.4935490110234142    
     1.385488381786809        0.4868695128224678    
     1.391008255817832        0.4802666557704968    
     1.396528129848855        0.4737400608342897    
     1.402048003879878        0.4672893116219022    
     1.407567877910902        0.4609139583066384    
     1.413087751941925        0.4546135224805105    
     1.418607625972948        0.4483875023210938    
     1.424127500003971        0.4422353783734329    
     1.429647374034994        0.4361566187131935    
     1.435167248066017        0.4301506835660960    
     1.440687122097041        0.4242170260536461    
     1.446206996128063        0.4183550919609059    
     1.451726870159087        0.4125643187516209    
     1.457246744190110        0.4068441361422077    
     1.462766618221133        0.4011939669880786    
     1.468286492252156        0.3956132281064058    
     1.473806366283179        0.3901013308406841    
     1.479326240314202        0.3846576814782828    
     1.484846114345226        0.3792816817313437    
     1.490365988376249        0.3739727292035711    
     1.495885862407272        0.3687302178438002    
     1.501405736438295        0.3635535383788128    
     1.506925610469318        0.3584420787286809    
     1.512445484500341        0.3533952244047434    
     1.517965358531364        0.3484123588915241    
     1.523485232562388        0.3434928640128410    
     1.529005106593411        0.3386361202823735    
     1.534524980624434        0.3338415072394981    
     1.540044854655457        0.3291084037709130    
     1.545564728686480        0.3244361884182074    
     1.551084602717503        0.3198242396720870    
     1.556604476748527        0.3152719362537157    
     1.562124350779549        0.3107786573835307    
     1.567644224810573        0.3063437830378526    
     1.573164098841596        0.3019666941938904    
     1.578683972872619        0.2976467730635634    
     1.584203846903642        0.2933834033162090    
     1.589723720934665        0.2891759702908889    
     1.595243594965688        0.2850238611985613    
     1.600763468996712        0.2809264653143827    
     1.606283343027735        0.2768831741605360    
     1.611803217058758        0.2728933816799517    
     1.617323091089781        0.2689564844012476    
     1.622842965120804        0.2650718815950785    
     1.628362839151827        0.2612389754223408    
     1.633882713182850        0.2574571710744649    
     1.639402587213874        0.2537258769060706    
     1.644922461244897        0.2500445045602767    
     1.650442335275920        0.2464124690869282    
     1.655962209306943        0.2428291890539782    
     1.661482083337966        0.2392940866523300    
     1.667001957368989        0.2358065877943324    
     1.672521831400013        0.2323661222061311    
     1.678041705431036        0.2289721235141979    
     1.683561579462059        0.2256240293262084    
     1.689081453493082        0.2223212813064797    
     1.694601327524105        0.2190633252460641    
     1.700121201555128        0.2158496111279858    
     1.705641075586151        0.2126795931875400    
     1.711160949617174        0.2095527299679305    
     1.716680823648198        0.2064684843713817    
     1.722200697679221        0.2034263237061048    
     1.727720571710244        0.2004257197290397    
     1.733240445741267        0.1974661486845499    
     1.738760319772290        0.1945470913394176    
     1.744280193803313        0.1916680330141876    
     1.749800067834336        0.1888284636109881    
     1.755319941865360        0.1860278776378023    
     1.760839815896383        0.1832657742298035    
     1.766359689927406        0.1805416571674506    
     1.771879563958429        0.1778550348916476    
     1.777399437989452        0.1752054205158987    
     1.782919312020475        0.1725923318360305    
     1.788439186051499        0.1700152913371379    
     1.793959060082522        0.1674738261980602    
     1.799478934113545        0.1649674682933588    
     1.804998808144568        0.1624957541932784    
     1.810518682175591        0.1600582251613566    
     1.816038556206614        0.1576544271499593    
     1.821558430237637        0.1552839107937810    
     1.827078304268660        0.1529462314016334    
     1.832598178299684        0.1506409489462970    
     1.838118052330707        0.1483676280526319    
     1.843637926361730        0.1461258379840485    
     1.849157800392753        0.1439151526275369    
     1.854677674423776        0.1417351504771161    
     1.860197548454799        0.1395854146158501    
     1.865717422485822        0.1374655326965284    
     1.871237296516846        0.1353750969211716    
     1.876757170547869        0.1333137040192467    
     1.882277044578892        0.1312809552247330    
     1.887796918609915        0.1292764562520983    
     1.893316792640938        0.1272998172713342    
     1.898836666671961        0.1253506528819575    
     1.904356540702985        0.1234285820861017    
     1.909876414734008        0.1215332282607299    
     1.915396288765031        0.1196642191291150    
     1.920916162796054        0.1178211867314957    
     1.926436036827077        0.1160037673950395    
     1.931955910858100        0.1142116017031145    
     1.937475784889123        0.1124443344639779    
     1.942995658920146        0.1107016146788535    
     1.948515532951170        0.1089830955094715    
     1.954035406982193        0.1072884342451039    
     1.959555281013216        0.1056172922691344    
     1.965075155044239        0.1039693350251955    
     1.970595029075262        0.1023442319829026    
     1.976114903106285        0.1007416566032516    
     1.981634777137308        0.9916128630364283E-01
     1.987154651168332        0.9760280242262223E-01
     1.992674525199355        0.9606589018434396E-01
     1.998194399230378        0.9455023866280701E-01
     2.003714273261401        0.9305554074585626E-01
     2.009234147292424        0.9158149309897617E-01
     2.014754021323447        0.9012779612893199E-01
     2.020273895354471        0.8869415394726181E-01
     2.025793769385494        0.8728027433368775E-01
     2.031313643416517        0.8588586869933915E-01
     2.036833517447540        0.8451065204995584E-01
     2.042353391478563        0.8315434294900385E-01
     2.047873265509586        0.8181666348081097E-01
     2.053393139540610        0.8049733921358798E-01
     2.058913013571633        0.7919609916249123E-01
     2.064432887602655        0.7791267575268347E-01
     2.069952761633679        0.7664680478243793E-01
     2.075472635664702        0.7539822538628617E-01
     2.080992509695725        0.7416667999817290E-01
     2.086512383726748        0.7295191431472121E-01
     2.092032257757771        0.7175367725855902E-01
     2.097552131788794        0.7057172094178554E-01
     2.103072005819818        0.6940580062947101E-01
     2.108591879850841        0.6825567470331563E-01
     2.114111753881864        0.6712110462542330E-01
     2.119631627912887        0.6600185490222245E-01
     2.125151501943910        0.6489769304853604E-01
     2.130671375974933        0.6380838955177984E-01
     2.136191250005957        0.6273371783634839E-01
     2.141711124036980        0.6167345422816427E-01
     2.147230998068003        0.6062737791941644E-01
     2.152750872099026        0.5959527093347124E-01
     2.158270746130049        0.5857691808998337E-01
     2.163790620161072        0.5757210697020489E-01
     2.169310494192096        0.5658062788250284E-01
     2.174830368223119        0.5560227382807934E-01
     2.180350242254141        0.5463684046691970E-01
     2.185870116285165        0.5368412608395309E-01
     2.191389990316188        0.5274393155544395E-01
     2.196909864347211        0.5181606031560452E-01
     2.202429738378234        0.5090031832344306E-01
     2.207949612409257        0.4999651402986163E-01
     2.213469486440280        0.4910445834498188E-01
     2.218989360471304        0.4822396460572338E-01
     2.224509234502327        0.4735484854360289E-01
     2.230029108533350        0.4649692825281406E-01
     2.235548982564373        0.4565002415854743E-01
     2.241068856595396        0.4481395898555988E-01
     2.246588730626419        0.4398855772700749E-01
     2.252108604657443        0.4317364761350001E-01
     2.257628478688466        0.4236905808246583E-01
     2.263148352719489        0.4157462074774522E-01
     2.268668226750512        0.4079016936944845E-01
     2.274188100781535        0.4001553982408206E-01
     2.279707974812558        0.3925057007490346E-01
     2.285227848843582        0.3849510014258839E-01
     2.290747722874605        0.3774897207612893E-01
     2.296267596905627        0.3701202992400080E-01
     2.301787470936651        0.3628411970559443E-01
     2.307307344967674        0.3556508938288494E-01
     2.312827218998697        0.3485478883241348E-01
     2.318347093029720        0.3415306981749842E-01
     2.323866967060743        0.3345978596072640E-01
     2.329386841091766        0.3277479271675609E-01
     2.334906715122790        0.3209794734501311E-01
     2.340426589153813        0.3142910888325820E-01
     2.345946463184836        0.3076813812100657E-01
     2.351466337215859        0.3011489757328296E-01
     2.356986211246882        0.2946925145455480E-01
     2.362506085277905        0.2883106565346783E-01
     2.368025959308929        0.2820020770688927E-01
     2.373545833339952        0.2757654677475905E-01
     2.379065707370975        0.2695995361513735E-01
     2.384585581401998        0.2635030055837594E-01
     2.390105455433021        0.2574746148589412E-01
     2.395625329464044        0.2515131180311635E-01
     2.401145203495068        0.2456172841628183E-01
     2.406665077526091        0.2397858970874307E-01
     2.412184951557114        0.2340177552115369E-01
     2.417704825588137        0.2283116711855376E-01
     2.423224699619160        0.2226664717442869E-01
     2.428744573650183        0.2170809974774119E-01
     2.434264447681206        0.2115541025925125E-01
     2.439784321712229        0.2060846546525204E-01
     2.445304195743252        0.2006715344408369E-01
     2.450824069774276        0.1953136357466014E-01
     2.456343943805299        0.1900098650531527E-01
     2.461863817836322        0.1847591413637405E-01
     2.467383691867345        0.1795603959929907E-01
     2.472903565898368        0.1744125723600562E-01
     2.478423439929391        0.1693146257841078E-01
     2.483943313960415        0.1642655232767509E-01
     2.489463187991438        0.1592642433383774E-01
     2.494983062022461        0.1543097757572980E-01
     2.500502936053484        0.1494011215355778E-01
     2.506022810084507        0.1445372959636943E-01
     2.511542684115530        0.1397173524049082E-01
     2.517062558146554        0.1349404567102313E-01
     2.522582432177577        0.1302060158896968E-01
     2.528102306208600        0.1255138257072070E-01
     2.533622180239623        0.1208641943637381E-01
     2.539142054270646        0.1162580173186390E-01
     2.544661928301669        0.1116967986961824E-01
     2.550181802332692        0.1071826272160580E-01
     2.555701676363715        0.1027181192223483E-01
     2.561221550394738        0.9830634127177502E-02
     2.566741424425762        0.9395072256103604E-02
     2.572261298456785        0.8965496480442059E-02
     2.577781172487808        0.8542295474923930E-02
     2.583301046518831        0.8125868258327765E-02
     2.588820920549854        0.7716616806023638E-02
     2.594340794580877        0.7314939516986079E-02
     2.599860668611901        0.6921225551248710E-02
     2.605380542642924        0.6535850011393133E-02
     2.610900416673947        0.6159169916435683E-02
     2.616420290704970        0.5791520902890995E-02
     2.621940164735993        0.5433214581944373E-02
     2.627460038767016        0.5084536480727335E-02
     2.632979912798040        0.4745744497726866E-02
     2.638499786829063        0.4417067806060378E-02
     2.644019660860086        0.4098706142795356E-02
     2.649539534891109        0.3790829427073526E-02
     2.655059408922132        0.3493577654083312E-02
     2.660579282953155        0.3207061015541075E-02
     2.666099156984178        0.2931360199969279E-02
     2.671619031015201        0.2666526827294112E-02
     2.677138905046224        0.2412583971531095E-02
     2.682658779077248        0.2169526721666422E-02
     2.688178653108271        0.1937322722673929E-02
     2.693698527139294        0.1715912623107932E-02
     2.699218401170317        0.1505210327612786E-02
     2.704738275201340        0.1305102901831882E-02
     2.710258149232363        0.1115449882775145E-02
     2.715778023263387        0.9360815646150944E-03
     2.721297897294410        0.7667954523714450E-03
     2.726817771325433        0.6073492317377308E-03
     2.732337645356456        0.4574465004154512E-03
     2.737857519387479        0.3167054296210429E-03
     2.743377393418502        0.1845789599439280E-03
     2.748897267449526        0.6007452747191249E-04
     2.754417141480549         0.000000000000000    
  0  5  1  0  1.000000   #orbital l, n, z, is_polarized, population
 500    0.1565357918124623E-01     7.811136011441871     # npts, delta, cutoff
     0.000000000000000        0.1689763441163839    
    0.1565357918124623E-01    0.1695263803434233    
    0.3130715836249247E-01    0.1711862704794124    