<preamble>

<basis_specs>
===============================================================================
Ru                   Z=  44    Mass=  101.07        Charge= 0.17977+309
Lmxo=2 Lmxkb= 2    BasisType=split      Semic=T
L=0  Nsemic=1  Cnfigmx=5
          i=1  nzeta=1  polorb=0  (4s)  (semicore shell)
            splnorm:   0.15000    
               vcte:    40.000    
               rinn:    2.5650    
               qcoe:    0.0000    
               qyuk:    0.0000    
               qwid:   0.10000E-01
                rcs:    2.8500    
            lambdas:    1.0000    
          i=2  nzeta=2  polorb=0  (5s)  (to be polarized non-perturbatively)
            splnorm:   0.15000    
               vcte:    40.000    
               rinn:    7.2010    
               qcoe:    0.0000    
               qyuk:    0.0000    
               qwid:   0.10000E-01
                rcs:    8.0011      5.7840    
            lambdas:    1.0000      1.0000    
L=1  Nsemic=1  Cnfigmx=5
          i=1  nzeta=1  polorb=0  (4p)  (semicore shell)
            splnorm:   0.15000    
               vcte:    40.000    
               rinn:    2.9224    
               qcoe:    0.0000    
               qyuk:    0.0000    
               qwid:   0.10000E-01
                rcs:    3.2471    
            lambdas:    1.0000    
          i=2  nzeta=1  polorb=0  (5p)  (non-perturbative polarization shell)
            splnorm:   0.15000    
               vcte:    40.000    
               rinn:    7.2082    
               qcoe:    0.0000    
               qyuk:    0.0000    
               qwid:   0.10000E-01
                rcs:    8.0011    
            lambdas:    1.0000    
L=2  Nsemic=0  Cnfigmx=4
          i=1  nzeta=2  polorb=0  (4d)
            splnorm:   0.15000    
               vcte:    40.000    
               rinn:    4.8872    
               qcoe:    0.0000    
               qyuk:    0.0000    
               qwid:   0.10000E-01
                rcs:    5.4248      3.5043    
            lambdas:    1.0000      1.0000    
-------------------------------------------------------------------------------
L=0  Nkbl=2  erefs: 0.17977+309 0.17977+309
L=1  Nkbl=2  erefs: 0.17977+309 0.17977+309
L=2  Nkbl=1  erefs: 0.17977+309
===============================================================================
</basis_specs>

<pseudopotential_header>
 Ru pb nrl pcec
 ONCVPSP-3.2017-10-31Hamann's oncvpsp                        
 4s 2.00  r= 1.36/4p 6.00  r= 1.41/4d 7.00  r= 1.31/                    4s:4p:4d:5s:
</pseudopotential_header>
</preamble>
Ru                            # Symbol
Ru                            # Label
   44                         # Atomic number
     16.0000000000                             # Valence charge
     101.070000000        # Mass 
     309.020257114        # Self energy 
   2   7                      # Lmax for basis, no. of nl orbitals 
   2   6                      # Lmax for projectors, no. of nl KB projectors
# PAOs:__________________________
  0  4  1  0  2.000000   #orbital l, n, z, is_polarized, population
 500    0.5711469781865973E-02     2.850023421151121     # npts, delta, cutoff
     0.000000000000000        0.2248711701172728    
    0.5711469781865973E-02    0.2250584627769846    
    0.1142293956373195E-01    0.2256381478248416    
    0.1713440934559792E-01    0.2266038290500528    
    0.2284587912746389E-01    0.2279548029769683    
    0.2855734890932986E-01    0.2296900886977276    
    0.3426881869119584E-01    0.2318084269295964    
    0.3998028847306181E-01    0.2343082808020963    
    0.4569175825492779E-01    0.2371878370607480    
    0.5140322803679376E-01    0.2404450075407728    
    0.5711469781865973E-01    0.2440774308805990    
    0.6282616760052570E-01    0.2480824744661116    
    0.6853763738239169E-01    0.2524572366017072    
    0.7424910716425766E-01    0.2571985489057274    
    0.7996057694612363E-01    0.2623029789282446    
    0.8567204672798960E-01    0.2677668329892758    
    0.9138351650985557E-01    0.2735861592354241    
    0.9709498629172154E-01    0.2797567509128536    
    0.1028064560735875        0.2862741498543451    
    0.1085179258554535        0.2931336501780378    
    0.1142293956373195        0.3003303021952988    
    0.1199408654191854        0.3078589165249823    
    0.1256523352010514        0.3157140684111694    
    0.1313638049829174        0.3238901022412988    
    0.1370752747647834        0.3323811362614096    
    0.1427867445466493        0.3411810674850318    
    0.1484982143285153        0.3502835767920591    
    0.1542096841103813        0.3596821342137451    
    0.1599211538922473        0.3693700043997757    
    0.1656326236741132        0.3793402522631475    
    0.1713440934559792        0.3895857487983933    
    0.1770555632378452        0.4000991770684775    
    0.1827670330197111        0.4108730383554850    
    0.1884785028015771        0.4218996584700083    
    0.1941899725834431        0.4331711942139416    
    0.1999014423653091        0.4446796399911622    
    0.2056129121471750        0.4564168345603879    
    0.2113243819290410        0.4683744679242792    
    0.2170358517109070        0.4805440883486504    
    0.2227473214927730        0.4929171095054609    
    0.2284587912746389        0.5054848177330370    
    0.2341702610565049        0.5182383794067940    
    0.2398817308383709        0.5311688484135251    
    0.2455932006202368        0.5442671737221362    
    0.2513046704021028        0.5575242070435333    
    0.2570161401839688        0.5709307105721645    
    0.2627276099658348        0.5844773648015936    
    0.2684390797477008        0.5981547764062652    
    0.2741505495295667        0.6119534861815168    
    0.2798620193114327        0.6258639770337153    
    0.2855734890932987        0.6398766820122719    
    0.2912849588751646        0.6539819923751627    
    0.2969964286570306        0.6681702656794722    
    0.3027078984388966        0.6824318338883488    
    0.3084193682207625        0.6967570114857186    
    0.3141308380026285        0.7111361035899636    
    0.3198423077844945        0.7255594140577639    
    0.3255537775663605        0.7400172535691999    
    0.3312652473482264        0.7544999476852088    
    0.3369767171300924        0.7689978448684517    
    0.3426881869119584        0.7835013244586396    
    0.3483996566938244        0.7980008045933660    
    0.3541111264756903        0.8124867500655295    
    0.3598225962575563        0.8269496801084708    
    0.3655340660394223        0.8413801760999690    
    0.3712455358212883        0.8557688891763588    
    0.3769570056031543        0.8701065477480846    
    0.3826684753850202        0.8843839649081207    
    0.3883799451668862        0.8985920457248061    
    0.3940914149487522        0.9127217944107815    
    0.3998028847306181        0.9267643213598641    
    0.4055143545124841        0.9407108500438532    
    0.4112258242943501        0.9545527237614758    
    0.4169372940762160        0.9682814122318609    
    0.4226487638580820        0.9818885180251251    
    0.4283602336399480        0.9953657828229355    
    0.4340717034218139         1.008705093502109    
    0.4397831732036799         1.021898488034613    
    0.4454946429855459         1.034938161197572    
    0.4512061127674119         1.047816470087173    
    0.4569175825492778         1.060525939430707    
    0.4626290523311438         1.073059266691223    
    0.4683405221130098         1.085409326959666    
    0.4740519918948758         1.097569177629645    
    0.4797634616767418         1.109532062850367    
    0.4854749314586077         1.121291417753600    
    0.4911864012404737         1.132840872450875    
    0.4968978710223397         1.144174255797565    
    0.5026093408042056         1.155285598920756    
    0.5083208105860716         1.166169138508334    
    0.5140322803679376         1.176819319856945    
    0.5197437501498036         1.187230799676997    
    0.5254552199316695         1.197398448653242    
    0.5311666897135355         1.207317353759783    
    0.5368781594954015         1.216982820328826    
    0.5425896292772675         1.226390373872926    
    0.5483010990591335         1.235535761660746    
    0.5540125688409994         1.244414954046789    
    0.5597240386228653         1.253024145556065    
    0.5654355084047313         1.261359755724802    
    0.5711469781865973         1.269418429698928    
    0.5768584479684633         1.277197038592240    
    0.5825699177503293         1.284692679606650    
    0.5882813875321953         1.291902675917193    
    0.5939928573140613         1.298824576324879    
    0.5997043270959272         1.305456154680735    
    0.6054157968777931         1.311795409084799    
    0.6111272666596591         1.317840560864051    
    0.6168387364415251         1.323590053333691    
    0.6225502062233911         1.329042550346283    
    0.6282616760052571         1.334196934633760    
    0.6339731457871230         1.339052305947422    
    0.6396846155689890         1.343607979001352    
    0.6453960853508550         1.347863481224853    
    0.6511075551327210         1.351818550329869    
    0.6568190249145869         1.355473131699392    
    0.6625304946964529         1.358827375603135    
    0.6682419644783189         1.361881634246878    
    0.6739534342601848         1.364636458662143    
    0.6796649040420508         1.367092595442852    
    0.6853763738239168         1.369250983335836    
    0.6910878436057828         1.371112749692151    
    0.6967993133876488         1.372679206786229    
    0.7025107831695148         1.373951848009977    
    0.7082222529513806         1.374932343948980    
    0.7139337227332466         1.375622538347982    
    0.7196451925151126         1.376024443972900    
    0.7253566622969786         1.376140238376591    
    0.7310681320788446         1.375972259575526    
    0.7367796018607106         1.375523001644612    
    0.7424910716425766         1.374795110237286    
    0.7482025414244425         1.373791378037964    
    0.7539140112063085         1.372514740153842    
    0.7596254809881744         1.370968269452994    
    0.7653369507700404         1.369155171855601    
    0.7710484205519064         1.367078781585032    
    0.7767598903337724         1.364742556385366    
    0.7824713601156383         1.362150072711821    
    0.7881828298975043         1.359305020900436    
    0.7938942996793703         1.356211200323168    
    0.7996057694612363         1.352872514534390    
    0.8053172392431023         1.349292966414670    
    0.8110287090249682         1.345476653317460    
    0.8167401788068341         1.341427762224191    
    0.8224516485887001         1.337150564913069    
    0.8281631183705661         1.332649413115436    
    0.8338745881524321         1.327928750734508    
    0.8395860579342981         1.322993066940947    
    0.8452975277161641         1.317846915789851    
    0.8510089974980301         1.312494921401149    
    0.8567204672798960         1.306941764262707    
    0.8624319370617619         1.301192176626120    
    0.8681434068436279         1.295250937951191    
    0.8738548766254939         1.289122870402529    
    0.8795663464073599         1.282812834401463    
    0.8852778161892259         1.276325724236338    
    0.8909892859710918         1.269666463733986    
    0.8967007557529578         1.262840001994996    
    0.9024122255348238         1.255851309195188    
    0.9081236953166898         1.248705372455541    
    0.9138351650985557         1.241407191782605    
    0.9195466348804217         1.233961776081261    
    0.9252581046622876         1.226374139241520    
    0.9309695744441536         1.218649296300873    
    0.9366810442260196         1.210792259683531    
    0.9423925140078856         1.202808035517790    
    0.9481039837897516         1.194701620032503    
    0.9538154535716176         1.186477996033661    
    0.9595269233534836         1.178142129461731    
    0.9652383931353495         1.169698966030533    
    0.9709498629172154         1.161153427948040    
    0.9766613326990814         1.152510410719652    
    0.9823728024809474         1.143774780034107    
    0.9880842722628134         1.134951368732418    
    0.9937957420446794         1.126044973859760    
    0.9995072118265453         1.117060353800561    
     1.005218681608411         1.108002225496554    
     1.010930151390277         1.098875261747906    
     1.016641621172143         1.089684088597084    
     1.022353090954009         1.080433282795398    
     1.028064560735875         1.071127369351860    
     1.033776030517741         1.061770819164148    
     1.039487500299607         1.052368046731304    
     1.045198970081473         1.042923407947818    
     1.050910439863339         1.033441197978782    
     1.056621909645205         1.023925649215603    
     1.062333379427071         1.014380929312053    
     1.068044849208937         1.004811139300014    
     1.073756318990803        0.9952203117847768    
     1.079467788772669        0.9856124092191432    
     1.085179258554535        0.9759913222563125    
     1.090890728336401        0.9663608681807899    
     1.096602198118267        0.9567247894171422    
     1.102313667900133        0.9470867521161125    
     1.108025137681999        0.9374503448176866    
     1.113736607463865        0.9278190771908824    
     1.119448077245731        0.9181963788496494    
     1.125159547027597        0.9085855982448831    
     1.130871016809463        0.8989900016318265    
     1.136582486591329        0.8894127721128824    
     1.142293956373195        0.8798570087552938    
     1.148005426155061        0.8703257257834500    
     1.153716895936927        0.8608218518456203    
     1.159428365718792        0.8513482293545501    
     1.165139835500659        0.8419076139020510    
     1.170851305282524        0.8325026737468860    
     1.176562775064391        0.8231359893759069    
     1.182274244846256        0.8138100531380903    
     1.187985714628123        0.8045272689510357    
     1.193697184409988        0.7952899520799412    
     1.199408654191854        0.7861003289883484    
     1.205120123973720        0.7769605372605900    
     1.210831593755586        0.7678726255954555    
     1.216543063537452        0.7588385538706347    
     1.222254533319318        0.7498601932777617    
     1.227966003101184        0.7409393265273028    
     1.233677472883050        0.7320776481230584    
     1.239388942664916        0.7232767647056687    
     1.245100412446782        0.7145381954644831    
     1.250811882228648        0.7058633726174004    
     1.256523352010514        0.6972536419577877    
     1.262234821792380        0.6887102634680220    
     1.267946291574246        0.6802344119991794    
     1.273657761356112        0.6718271780138892    
     1.279369231137978        0.6634895683961943    
     1.285080700919844        0.6552225073229904    
     1.290792170701710        0.6470268371961813    
     1.296503640483576        0.6389033196370427    
     1.302215110265442        0.6308526365458361    
     1.307926580047308        0.6228753912141467    
     1.313638049829174        0.6149721094553329    
     1.319349519611040        0.6071432407138554    
     1.325060989392906        0.5993891596787306    
     1.330772459174772        0.5917101680759148    
     1.336483928956638        0.5841064960176159    
     1.342195398738504        0.5765783014106181    
     1.347906868520370        0.5691256702656012    
     1.353618338302236        0.5617486200391729    
     1.359329808084102        0.5544471073284918    
     1.365041277865968        0.5472210366105016    
     1.370752747647834        0.5400702700113503    
     1.376464217429699        0.5329946369634215    
     1.382175687211566        0.5259939427473340    
     1.387887156993431        0.5190679716649468    
     1.393598626775298        0.5122164866104697    
     1.399310096557163        0.5054392274788425    
     1.405021566339030        0.4987359120088322    
     1.410733036120895        0.4921062373797762    
     1.416444505902761        0.4855498817066843    
     1.422155975684627        0.4790665049344299    
     1.427867445466493        0.4726557496186153    
     1.433578915248359        0.4663172419756614    
     1.439290385030225        0.4600505926243316    
     1.445001854812091        0.4538553974781279    
     1.450713324593957        0.4477312384861844    
     1.456424794375823        0.4416776844901275    
     1.462136264157689        0.4356942919677013    
     1.467847733939555        0.4297806057472019    
     1.473559203721421        0.4239361597165701    
     1.479270673503287        0.4181604775013795    
     1.484982143285153        0.4124530731177912    
     1.490693613067019        0.4068134516021204    
     1.496405082848885        0.4012411096173613    
     1.502116552630751        0.3957355360374429    
     1.507828022412617        0.3902962125097095    
     1.513539492194483        0.3849226139964107    
     1.519250961976349        0.3796142092958845    
     1.524962431758215        0.3743704615439476    
     1.530673901540081        0.3691908286961419    
     1.536385371321947        0.3640747639915101    
     1.542096841103813        0.3590217163984088    
     1.547808310885679        0.3540311310428360    
     1.553519780667545        0.3491024496199888    
     1.559231250449411        0.3442351107895893    
     1.564942720231277        0.3394285505552183    
     1.570654190013143        0.3346822026284582    
     1.576365659795009        0.3299954987783758    
     1.582077129576875        0.3253678691664282    
     1.587788599358741        0.3207987426676198    
     1.593500069140606        0.3162875471783644    
     1.599211538922473        0.3118337099112153    
     1.604923008704338        0.3074366576770620    
     1.610634478486205        0.3030958171552747    
     1.616345948268070        0.2988106151521344    
     1.622057418049936        0.2945804788477649    
     1.627768887831802        0.2904048360321967    
     1.633480357613668        0.2862831153309691    
     1.639191827395534        0.2822147464202270    
     1.644903297177400        0.2781991602320634    
     1.650614766959266        0.2742357891503513    
     1.656326236741132        0.2703240671972732    
     1.662037706522998        0.2664634302109044    
     1.667749176304864        0.2626533160142315    
     1.673460646086730        0.2588931645759466    
     1.679172115868596        0.2551824181630320    
     1.684883585650462        0.2515205214857110    
     1.690595055432328        0.2479069218349583    
     1.696306525214194        0.2443410692127403    
     1.702017994996060        0.2408224164553029    
     1.707729464777926        0.2373504193497736    
     1.713440934559792        0.2339245367443351    
     1.719152404341658        0.2305442306520858    
     1.724863874123524        0.2272089663489415    
     1.730575343905390        0.2239182124657453    
     1.736286813687256        0.2206714410747868    
     1.741998283469122        0.2174681277709514    
     1.747709753250988        0.2143077517477044    
     1.753421223032854        0.2111897958680546    
     1.759132692814720        0.2081137467307742    
     1.764844162596586        0.2050790947319682    
     1.770555632378452        0.2020853341222119    
     1.776267102160318        0.1991319630593652    
     1.781978571942184        0.1962184836573717    
     1.787690041724050        0.1933444020310555    
     1.793401511505916        0.1905092283370699    
     1.799112981287782        0.1877124768112473    
     1.804824451069648        0.1849536658024667    
     1.810535920851513        0.1822323178031379    
     1.816247390633380        0.1795479594763257    
     1.821958860415245        0.1769001216799503    
     1.827670330197111        0.1742883394879326    
     1.833381799978977        0.1717121522085009    
     1.839093269760843        0.1691711033996056    
     1.844804739542709        0.1666647408819510    
     1.850516209324575        0.1641926167493686    
     1.856227679106441        0.1617542873768112    
     1.861939148888307        0.1593493134258874    
     1.867650618670173        0.1569772598484674    
     1.873362088452039        0.1546376958879959    
     1.879073558233905        0.1523301950788023    
     1.884785028015771        0.1500543352433917    
     1.890496497797637        0.1478096984880985    
     1.896207967579503        0.1455958711968314    
     1.901919437361369        0.1434124440231365    
     1.907630907143235        0.1412590118805957    
     1.913342376925101        0.1391351739318855    
     1.919053846706967        0.1370405335762338    
     1.924765316488833        0.1349746984354919    
     1.930476786270699        0.1329372803388394    
     1.936188256052565        0.1309278953063914    
     1.941899725834431        0.1289461635314897    
     1.947611195616297        0.1269917093618703    
     1.953322665398163        0.1250641612796952    
     1.959034135180029        0.1231631518807267    
     1.964745604961895        0.1212883178524145    
     1.970457074743761        0.1194392999510956    
     1.976168544525627        0.1176157429782551    
     1.981880014307493        0.1158172957561272    
     1.987591484089359        0.1140436111024171    
     1.993302953871225        0.1122943458043359    
     1.999014423653091        0.1105691605918706    
     2.004725893434957        0.1088677201105571    
     2.010437363216822        0.1071896928935589    
     2.016148832998689        0.1055347513332165    
     2.021860302780555        0.1039025716520217    
     2.027571772562421        0.1022928338731800    
     2.033283242344286        0.1007052217906769    
     2.038994712126152        0.9913942293892995E-01
     2.044706181908019        0.9759512856204131E-01
     2.050417651689884        0.9607203358270718E-01
     2.056129121471750        0.9456983657079175E-01
     2.061840591253616        0.9308823971159745E-01
     2.067552061035483        0.9162694877386530E-01
     2.073263530817348        0.9018567307752824E-01
     2.078975000599214        0.8876412546122781E-01
     2.084686470381080        0.8736202224964371E-01
     2.090397940162946        0.8597908322063835E-01
     2.096109409944812        0.8461503157227707E-01
     2.101820879726678        0.8326959388966111E-01
     2.107532349508544        0.8194250011168364E-01
     2.113243819290410        0.8063348349766788E-01
     2.118955289072276        0.7934228059398461E-01
     2.124666758854142        0.7806863120054408E-01
     2.130378228636008        0.7681227833726982E-01
     2.136089698417874        0.7557296821055176E-01
     2.141801168199740        0.7435045017969201E-01
     2.147512637981606        0.7314447672338401E-01
     2.153224107763472        0.7195480340613714E-01
     2.158935577545338        0.7078118884479125E-01
     2.164647047327204        0.6962339467504526E-01
     2.170358517109070        0.6848118551811300E-01
     2.176069986890936        0.6735432894735205E-01
     2.181781456672802        0.6624259545502220E-01
     2.187492926454668        0.6514575841912951E-01
     2.193204396236534        0.6406359407037047E-01
     2.198915866018400        0.6299588145921957E-01
     2.204627335800266        0.6194240242306473E-01
     2.210338805582132        0.6090294155352236E-01
     2.216050275363997        0.5987728616386834E-01
     2.221761745145864        0.5886522625664892E-01
     2.227473214927730        0.5786655449139803E-01
     2.233184684709596        0.5688106615252569E-01
     2.238896154491461        0.5590855911737886E-01
     2.244607624273327        0.5494883382446277E-01
     2.250319094055194        0.5400169324186799E-01
     2.256030563837059        0.5306694283583407E-01
     2.261742033618925        0.5214439053952759E-01
     2.267453503400791        0.5123384672200607E-01
     2.273164973182658        0.5033512415737850E-01
     2.278876442964523        0.4944803799416925E-01
     2.284587912746389        0.4857240572487598E-01
     2.290299382528255        0.4770804715574321E-01
     2.296010852310121        0.4685478437674588E-01
     2.301722322091987        0.4601244173178087E-01
     2.307433791873853        0.4518084578908008E-01
     2.313145261655719        0.4435982531184570E-01
     2.318856731437585        0.4354921122909900E-01
     2.324568201219451        0.4274883660676385E-01
     2.330279671001317        0.4195853661895244E-01
     2.335991140783183        0.4117814851950496E-01
     2.341702610565049        0.4040751161374781E-01
     2.347414080346915        0.3964646723047855E-01
     2.353125550128781        0.3889485869419272E-01
     2.358837019910647        0.3815253129750888E-01
     2.364548489692513        0.3741933227387403E-01
     2.370259959474379        0.3669511077047654E-01
     2.375971429256245        0.3597971782139456E-01
     2.381682899038111        0.3527300632099036E-01
     2.387394368819977        0.3457483099750240E-01
     2.393105838601843        0.3388504838692482E-01
     2.398817308383709        0.3320351680709008E-01
     2.404528778165575        0.3253009633199167E-01
     2.410240247947441        0.3186464876634784E-01
     2.415951717729307        0.3120703762037126E-01
     2.421663187511172        0.3055712808481256E-01
     2.427374657293039        0.2991478700621332E-01
     2.433086127074905        0.2927988286239264E-01
     2.438797596856771        0.2865228573816993E-01
     2.444509066638636        0.2803186730129056E-01
     2.450220536420503        0.2741850077863289E-01
     2.455932006202369        0.2681206093262515E-01
     2.461643475984234        0.2621242403788160E-01
     2.467354945766100        0.2561946785828197E-01
     2.473066415547966        0.2503307162347185E-01
     2.478777885329833        0.2445311600660967E-01
     2.484489355111698        0.2387948310183617E-01
     2.490200824893564        0.2331205640197963E-01
     2.495912294675430        0.2275072077574911E-01
     2.501623764457297        0.2219536244777980E-01
     2.507335234239162        0.2164586897620352E-01
     2.513046704021028        0.2110212923061050E-01
     2.518758173802894        0.2056403337134637E-01
     2.524469643584760        0.2003147282899577E-01
     2.530181113366626        0.1950434028298812E-01
     2.535892583148492        0.1898252963997589E-01
     2.541604052930358        0.1846593601558887E-01
     2.547315522712224        0.1795445571352484E-01
     2.553026992494090        0.1744798620566711E-01
     2.558738462275956        0.1694642611288407E-01
     2.564449932057822        0.1644967518344675E-01
     2.570161401839688        0.1595763427573550E-01
     2.575872871621554        0.1547020533839257E-01
     2.581584341403420        0.1498729139157976E-01
     2.587295811185286        0.1450879651550416E-01
     2.593007280967152        0.1403462617557225E-01
     2.598718750749018        0.1356468960088508E-01
     2.604430220530884        0.1309890725992656E-01
     2.610141690312750        0.1263722378240086E-01
     2.615853160094616        0.1217962277037878E-01
     2.621564629876482        0.1172613919580726E-01
     2.627276099658348        0.1127686687945634E-01
     2.632987569440214        0.1083196059692724E-01
     2.638699039222080        0.1039163361306955E-01
     2.644410509003946        0.9956151910933585E-02
     2.650121978785811        0.9525826369381696E-02
     2.655833448567678        0.9101003923746140E-02
     2.661544918349544        0.8682058475451592E-02
     2.667256388131409        0.8269382072401263E-02
     2.672967857913275        0.7863376687455792E-02
     2.678679327695141        0.7464446778659387E-02
     2.684390797477008        0.7072992714279566E-02
     2.690102267258873        0.6689405078568643E-02
     2.695813737040739        0.6314059831474731E-02
     2.701525206822605        0.5947314270134437E-02
     2.707236676604472        0.5589503726259526E-02
     2.712948146386337        0.5240938927619606E-02
     2.718659616168203        0.4901903950873560E-02
     2.724371085950069        0.4572654695038768E-02
     2.730082555731935        0.4253417808623055E-02
     2.735794025513801        0.3944390007932994E-02
     2.741505495295667        0.3645737728717754E-02
     2.747216965077533        0.3357597057657128E-02
     2.752928434859399        0.3080073893918019E-02
     2.758639904641265        0.2813244293730887E-02
     2.764351374423131        0.2557154952314789E-02
     2.770062844204997        0.2311823776899424E-02
     2.775774313986863        0.2077240501176638E-02
     2.781485783768729        0.1853367283697630E-02
     2.787197253550595        0.1640139217756908E-02
     2.792908723332461        0.1437464653041054E-02
     2.798620193114327        0.1245225179856926E-02
     2.804331662896193        0.1063275034782860E-02
     2.810043132678059        0.8914395080758708E-03
     2.815754602459925        0.7295115648356512E-03
     2.821466072241791        0.5772450677380531E-03
     2.827177542023657        0.4343409349902144E-03
     2.832889011805523        0.3004166280524980E-03
     2.838600481587389        0.1749283632478625E-03
     2.844311951369255        0.5689726580727170E-04
     2.850023421151121         0.000000000000000    
  0  5  1  0  1.000000   #orbital l, n, z, is_polarized, population
 500    0.1603429637560237E-01     8.001113891425581     # npts, delta, cutoff
     0.000000000000000        0.8813901321921534E-01
    0.1603429637560237E-01    0.8871341620372454E-01
    0.3206859275120473E-01    0.9043930400209367E-01