<preamble>

<basis_specs>
===============================================================================
Se                   Z=  34    Mass=  78.971        Charge= 0.17977+309
Lmxo=2 Lmxkb= 2    BasisType=split      Semic=T
L=0  Nsemic=0  Cnfigmx=4
          i=1  nzeta=2  polorb=0  (4s)
            splnorm:   0.15000    
               vcte:    40.000    
               rinn:    4.3379    
               qcoe:    0.0000    
               qyuk:    0.0000    
               qwid:   0.10000E-01
                rcs:    4.8199      3.2634    
            lambdas:    1.0000      1.0000    
L=1  Nsemic=0  Cnfigmx=4
          i=1  nzeta=2  polorb=0  (4p)  (to be polarized non-perturbatively)
            splnorm:   0.15000    
               vcte:    40.000    
               rinn:    5.6118    
               qcoe:    0.0000    
               qyuk:    0.0000    
               qwid:   0.10000E-01
                rcs:    6.2291      4.2866    
            lambdas:    1.0000      1.0000    
L=2  Nsemic=1  Cnfigmx=4
          i=1  nzeta=1  polorb=0  (3d)  (semicore shell)
            splnorm:   0.15000    
               vcte:    40.000    
               rinn:    2.2422    
               qcoe:    0.0000    
               qyuk:    0.0000    
               qwid:   0.10000E-01
                rcs:    2.4913    
            lambdas:    1.0000    
          i=2  nzeta=1  polorb=0  (4d)  (non-perturbative polarization shell)
            splnorm:   0.15000    
               vcte:    40.000    
               rinn:    5.6118    
               qcoe:    0.0000    
               qyuk:    0.0000    
               qwid:   0.10000E-01
                rcs:    6.2291    
            lambdas:    1.0000    
-------------------------------------------------------------------------------
L=0  Nkbl=1  erefs: 0.17977+309
L=1  Nkbl=1  erefs: 0.17977+309
L=2  Nkbl=2  erefs: 0.17977+309 0.17977+309
===============================================================================
</basis_specs>

<pseudopotential_header>
 Se pb nrl pcec
 ONCVPSP-3.2017-10-31Hamann's oncvpsp                        
 4s 2.00  r= 1.82/4p 4.00  r= 1.50/3d10.00  r= 1.91/                    3d:4s:4p:
</pseudopotential_header>
</preamble>
Se                            # Symbol
Se                            # Label
   34                         # Atomic number
     16.0000000000                             # Valence charge
     78.9710000000        # Mass 
     255.005661307        # Self energy 
   2   6                      # Lmax for basis, no. of nl orbitals 
   2   6                      # Lmax for projectors, no. of nl KB projectors
# PAOs:__________________________
  0  4  1  0  2.000000   #orbital l, n, z, is_polarized, population
 500    0.9659157441939589E-02     4.819919563527855     # npts, delta, cutoff
     0.000000000000000        0.5800940607856789E-01
    0.9659157441939589E-02    0.5811005698075828E-01
    0.1931831488387918E-01    0.5841657582885019E-01
    0.2897747232581876E-01    0.5892721682101106E-01
    0.3863662976775836E-01    0.5964164216093265E-01
    0.4829578720969795E-01    0.6055937907605755E-01
    0.5795494465163753E-01    0.6167981921984202E-01
    0.6761410209357713E-01    0.6300221821886411E-01
    0.7727325953551671E-01    0.6452569517238912E-01
    0.8693241697745629E-01    0.6624923209160249E-01
    0.9659157441939589E-01    0.6817167328507957E-01
    0.1062507318613355        0.7029172470178519E-01
    0.1159098893032751        0.7260795324508480E-01
    0.1255690467452147        0.7511878607277929E-01
    0.1352282041871543        0.7782250989940899E-01
    0.1448873616290938        0.8071727031812358E-01
    0.1545465190710334        0.8380107116030056E-01
    0.1642056765129730        0.8707177391180888E-01
    0.1738648339549126        0.9052709720537694E-01
    0.1835239913968522        0.9416461640890801E-01
    0.1931831488387918        0.9798176332980199E-01
    0.2028423062807314        0.1019758260553904    
    0.2125014637226710        0.1061439489494599    
    0.2221606211646105        0.1104831328245405    
    0.2318197786065501        0.1149902353091613    
    0.2414789360484897        0.1196619714286480    
    0.2511380934904293        0.1244949144172184    
    0.2607972509323689        0.1294854967781934    
    0.2704564083743085        0.1346300116080133    
    0.2801155658162481        0.1399246141985124    
    0.2897747232581876        0.1453653239305034    
    0.2994338807001273        0.1509480264702285    
    0.3090930381420668        0.1566684762785870    
    0.3187521955840064        0.1625222994413421    
    0.3284113530259460        0.1685049968266780    
    0.3380705104678856        0.1746119475745823    
    0.3477296679098252        0.1808384129205804    
    0.3573888253517648        0.1871795403543274    
    0.3670479827937044        0.1936303681115249    
    0.3767071402356439        0.2001858299955691    
    0.3863662976775836        0.2068407605232615    
    0.3960254551195231        0.2135899003868550    
    0.4056846125614627        0.2204279022226853    
    0.4153437700034023        0.2273493366746220    
    0.4250029274453419        0.2343486987386573    
    0.4346620848872815        0.2414204143730615    
    0.4443212423292211        0.2485588473567512    
    0.4539803997711607        0.2557583063768288    
    0.4636395572131002        0.2630130523246529    
    0.4732987146550399        0.2703173057783483    
    0.4829578720969794        0.2776652546483175    
    0.4926170295389191        0.2850510619611243    
    0.5022761869808586        0.2924688737560769    
    0.5119353444227982        0.2999128270679426    
    0.5215945018647378        0.3073770579685101    
    0.5312536593066773        0.3148557096391450    
    0.5409128167486170        0.3223429404461154    
    0.5505719741905566        0.3298329319902509    
    0.5602311316324962        0.3373198971024610    
    0.5698902890744357        0.3447980877568105    
    0.5795494465163753        0.3522618028731418    
    0.5892086039583149        0.3597053959817721    
    0.5988677614002546        0.3671232827234394    
    0.6085269188421941        0.3745099481585188    
    0.6181860762841337        0.3818599538605398    
    0.6278452337260733        0.3891679447701698    
    0.6375043911680128        0.3964286557871610    
    0.6471635486099525        0.4036369180791500    
    0.6568227060518921        0.4107876650878105    
    0.6664818634938316        0.4178759382145006    
    0.6761410209357712        0.4248968921693449    
    0.6858001783777108        0.4318457999695537    
    0.6954593358196504        0.4387180575747588    
    0.7051184932615900        0.4455091881490962    
    0.7147776507035296        0.4522148459419116    
    0.7244368081454692        0.4588308197809864    
    0.7340959655874087        0.4653530361743427    
    0.7437551230293483        0.4717775620188061    
    0.7534142804712879        0.4781006069155800    
    0.7630734379132276        0.4843185250952455    
    0.7727325953551671        0.4904278169565598    
    0.7823917527971067        0.4964251302255266    
    0.7920509102390463        0.5023072607430272    
    0.8017100676809858        0.5080711528912742    
    0.8113692251229254        0.5137138996710235    
    0.8210283825648651        0.5192327424431363    
    0.8306875400068047        0.5246250703497126    
    0.8403466974487442        0.5298884194313140    
    0.8500058548906838        0.5350204714581666    
    0.8596650123326234        0.5400190524943249    
    0.8693241697745629        0.5448821312148102    
    0.8789833272165026        0.5496078169965126    
    0.8886424846584422        0.5541943578044095    
    0.8983016421003818        0.5586401378950585    
    0.9079607995423213        0.5629436753598079    
    0.9176199569842609        0.5671036195302125    
    0.9272791144262005        0.5711187482682435    
    0.9369382718681402        0.5749879651637322    
    0.9465974293100797        0.5787102966611344    
    0.9562565867520193        0.5822848891372783    
    0.9659157441939589        0.5857110059511313    
    0.9755749016358984        0.5889880244858062    
    0.9852340590778381        0.5921154332022213    
    0.9948932165197777        0.5950928287226980    
     1.004552373961717        0.5979199129616950    
     1.014211531403657        0.6005964903195217    
     1.023870688845596        0.6031224649535656    
     1.033529846287536        0.6054978381401811    
     1.043189003729476        0.6077227057386398    
     1.052848161171415        0.6097972557671794    
     1.062507318613355        0.6117217660993693    
     1.072166476055294        0.6134966022873605    
     1.081825633497234        0.6151222155169271    
     1.091484790939174        0.6165991406974259    
     1.101143948381113        0.6179279946880772    
     1.110803105823053        0.6191094746602913    
     1.120462263264992        0.6201443565941671    
     1.130121420706932        0.6210334939053351    
     1.139780578148871        0.6217778161971392    
     1.149439735590811        0.6223783281315877    
     1.159098893032751        0.6228361084107350    
     1.168758050474690        0.6231523088590851    
     1.178417207916630        0.6233281535964706    
     1.188076365358570        0.6233649382896822    
     1.197735522800509        0.6232640294695740    
     1.207394680242449        0.6230268639004657    
     1.217053837684388        0.6226549479874870    
     1.226712995126328        0.6221498572060292    
     1.236372152568267        0.6215132355386521    
     1.246031310010207        0.6207467949037305    
     1.255690467452147        0.6198523145586542    
     1.265349624894086        0.6188316404630049    
     1.275008782336026        0.6176866845854161    
     1.284667939777965        0.6164194241376367    
     1.294327097219905        0.6150319007223000    
     1.303986254661845        0.6135262193783764    
     1.313645412103784        0.6119045475111282    
     1.323304569545724        0.6101691136936317    
     1.332963726987663        0.6083222063271345    
     1.342622884429603        0.6063661721501945    
     1.352282041871542        0.6043034145855674    
     1.361941199313482        0.6021364137758304    
     1.371600356755422        0.5998677011294249    
     1.381259514197361        0.5974997953587657    
     1.390918671639301        0.5950353066799531    
     1.400577829081240        0.5924768909774248    
     1.410236986523180        0.5898272471322643    
     1.419896143965120        0.5870891140790209    
     1.429555301407059        0.5842652676768946    
     1.439214458848999        0.5813585173946846    
     1.448873616290938        0.5783717028147706    
     1.458532773732878        0.5753076899824037    
     1.468191931174817        0.5721693675413447    
     1.477851088616757        0.5689596428134626    
     1.487510246058697        0.5656814375802764    
     1.497169403500636        0.5623376838842786    
     1.506828560942576        0.5589313197650332    
     1.516487718384515        0.5554652846319508    
     1.526146875826455        0.5519425150181368    
     1.535806033268395        0.5483659396226647    
     1.545465190710334        0.5447384746731067    
     1.555124348152274        0.5410630194920180    
     1.564783505594213        0.5373424515716229    
     1.574442663036153        0.5335796221879692    
     1.584101820478093        0.5297773517084586    
     1.593760977920032        0.5259384248289041    
     1.603420135361972        0.5220655862276125    
     1.613079292803911        0.5181615362149182    
     1.622738450245851        0.5142289264212779    
     1.632397607687791        0.5102703556796367    
     1.642056765129730        0.5062883660832003    
     1.651715922571670        0.5022854392095112    
     1.661375080013609        0.4982639925490550    
     1.671034237455549        0.4942263761535982    
     1.680693394897488        0.4901748695197343    
     1.690352552339428        0.4861116787251281    
     1.700011709781368        0.4820389338283901    
     1.709670867223307        0.4779586865502344    
     1.719330024665247        0.4738729082421683    
     1.728989182107186        0.4697834881576378    
     1.738648339549126        0.4656922320301319    
     1.748307496991066        0.4616008609672214    
     1.757966654433005        0.4575110106633279    
     1.767625811874945        0.4534242308595137    
     1.777284969316884        0.4493419852758607    
     1.786944126758824        0.4452656523205010    
     1.796603284200764        0.4411965254572714    
     1.806262441642703        0.4371358117942980    
     1.815921599084643        0.4330846330355975    
     1.825580756526582        0.4290440333806501    
     1.835239913968522        0.4250149909838606    
     1.844899071410461        0.4209984301470243    
     1.854558228852401        0.4169952324463364    
     1.864217386294341        0.4130062428860777    
     1.873876543736280        0.4090322698158561    
     1.883535701178220        0.4050740838659589    
     1.893194858620159        0.4011324192977416    
     1.902854016062099        0.3972079757657151    
     1.912513173504039        0.3933014193621215    
     1.922172330945978        0.3894133836334383    
     1.931831488387918        0.3855444706992263    
     1.941490645829857        0.3816952523229905    
     1.951149803271797        0.3778662704659935    
     1.960808960713736        0.3740580386905789    
     1.970468118155676        0.3702710430176597    
     1.980127275597616        0.3665057427512425    
     1.989786433039555        0.3627625713499958    
     1.999445590481495        0.3590419374734320    
     2.009104747923435        0.3553442256552589    
     2.018763905365374        0.3516697970788749    
     2.028423062807314        0.3480189904432871    
     2.038082220249253        0.3443921227277179    
     2.047741377691193        0.3407894899373299    
     2.057400535133132        0.3372113678057175    
     2.067059692575072        0.3336580125037737    
     2.076718850017012        0.3301296613259830    
     2.086378007458951        0.3266265333522601    
     2.096037164900891        0.3231488300899904    
     2.105696322342830        0.3196967360991670    
     2.115355479784770        0.3162704195981738    
     2.125014637226709        0.3128700330523070    
     2.134673794668649        0.3094957137449139    
     2.144332952110589        0.3061475843311588    
     2.153992109552529        0.3028257533757674    
     2.163651266994468        0.2995303158745198    
     2.173310424436408        0.2962613537601375    
     2.182969581878347        0.2930189363927472    
     2.192628739320287        0.2898031210360945    
     2.202287896762226        0.2866139533186830    
     2.211947054204166        0.2834514676809084    
     2.221606211646105        0.2803156878095518    
     2.231265369088045        0.2772066270572960    
     2.240924526529985        0.2741242888504834    
     2.250583683971924        0.2710686670844233    
     2.260242841413864        0.2680397465051451    
     2.269901998855803        0.2650375030807909    
     2.279561156297743        0.2620619043606893    
     2.289220313739682        0.2591129098225219    
     2.298879471181622        0.2561904712101336    
     2.308538628623562        0.2532945328592586    
     2.318197786065501        0.2504250320130210    
     2.327856943507441        0.2475818991286892    
     2.337516100949380        0.2447650581729356    
     2.347175258391320        0.2419744269082693    
     2.356834415833259        0.2392099171710115    
     2.366493573275199        0.2364714351388844    
     2.376152730717139        0.2337588815906527    
     2.385811888159079        0.2310721521576019    
     2.395471045601018        0.2284111375659408    
     2.405130203042958        0.2257757238717410    
     2.414789360484897        0.2231657926881100    
     2.424448517926837        0.2205812214046112    
     2.434107675368776        0.2180218833994942    
     2.443766832810716        0.2154876482447002    
     2.453425990252656        0.2129783819041807    
     2.463085147694595        0.2104939469253557    
     2.472744305136535        0.2080342026238043    
     2.482403462578474        0.2055990052623079    
     2.492062620020414        0.2031882082233333    
     2.501721777462353        0.2008016621751600    
     2.511380934904293        0.1984392152332517    
     2.521040092346233        0.1961007131154430    
     2.530699249788172        0.1937859992911529    
     2.540358407230112        0.1914949151265322    
     2.550017564672051        0.1892273000238887    
     2.559676722113991        0.1869829915555770    
     2.569335879555930        0.1847618255941796    
     2.578995036997870        0.1825636364375007    
     2.588654194439810        0.1803882569283693    
     2.598313351881750        0.1782355185715752    
     2.607972509323689        0.1761052516483575    
     2.617631666765629        0.1739972853187392    
     2.627290824207568        0.1719114477265834    
     2.636949981649508        0.1698475660975801    
     2.646609139091447        0.1678054668400926    
     2.656268296533387        0.1657849756493251    
     2.665927453975327        0.1637859175739170    
     2.675586611417266        0.1618081171048633    
     2.685245768859206        0.1598513982705818    
     2.694904926301145        0.1579155847090778    
     2.704564083743085        0.1560004998049215    
     2.714223241185024        0.1541059666088641    
     2.723882398626964        0.1522318080171972    
     2.733541556068904        0.1503778467577842    
     2.743200713510843        0.1485439056067094    
     2.752859870952783        0.1467298074980885    
     2.762519028394722        0.1449353752905964    
     2.772178185836662        0.1431604319682422    
     2.781837343278601        0.1414048007301636    
     2.791496500720541        0.1396683050376750    
     2.801155658162481        0.1379507686580029    
     2.810814815604421        0.1362520157021703    
     2.820473973046360        0.1345718706685875    
     2.830133130488300        0.1329101584901038    
     2.839792287930239        0.1312667045768096    
     2.849451445372179        0.1296413348571810    
     2.859110602814118        0.1280338758158104    
     2.868769760256058        0.1264441545298044    
     2.878428917697998        0.1248719987036446    
     2.888088075139937        0.1233172367023972    
     2.897747232581877        0.1217796975833215    
     2.907406390023816        0.1202592111259534    
     2.917065547465756        0.1187556078606937    
     2.926724704907695        0.1172687190960012    
     2.936383862349635        0.1157983769441905    
     2.946043019791575        0.1143444143458962    
     2.955702177233514        0.1129066650932543    
     2.965361334675454        0.1114849638518476    
     2.975020492117393        0.1100791461814541    
     2.984679649559333        0.1086890485556225    
     2.994338807001272        0.1073145083801567    
     3.003997964443212        0.1059553640105131    
     3.013657121885152        0.1046114547681622    
     3.023316279327091        0.1032826209559428    
     3.032975436769031        0.1019687038724632    
     3.042634594210971        0.1006695458255660    
     3.052293751652910        0.9938499014489389E-01
     3.061952909094850        0.9811488119358924E-01
     3.071612066536789        0.9685906437917088E-01
     3.081271223978729        0.9561738616360028E-01
     3.090930381420669        0.9438969407257110E-01
     3.100589538862608        0.9317583670406014E-01
     3.110248696304548        0.9197566373615897E-01
     3.119907853746487        0.9078902593421526E-01
     3.129567011188427        0.8961577515730144E-01
     3.139226168630366        0.8845576436405303E-01
     3.148885326072306        0.8730884761788692E-01
     3.158544483514246        0.8617488009162556E-01
     3.168203640956185        0.8505371807154737E-01
     3.177862798398125        0.8394521896089541E-01
     3.187521955840064        0.8284924128285492E-01
     3.197181113282004        0.8176564468302211E-01
     3.206840270723943        0.8069428993138371E-01
     3.216499428165883        0.7963503892383365E-01
     3.226158585607823        0.7858775468323444E-01
     3.235817743049762        0.7755230136004762E-01
     3.245476900491702        0.7652854423254613E-01
     3.255136057933641        0.7551634970663183E-01
     3.264795215375581        0.7451558531526810E-01
     3.274454372817521        0.7352611971754448E-01
     3.284113530259460        0.7254782269738702E-01
     3.293772687701400        0.7158056516193588E-01
     3.303431845143340        0.7062421913959376E-01
     3.313091002585279        0.6967865777776594E-01
     3.322750160027219        0.6874375534030150E-01
     3.332409317469158        0.6781938720465117E-01
     3.342068474911098        0.6690542985875038E-01
     3.351727632353037        0.6600176089764254E-01
     3.361386789794977        0.6510825901985119E-01
     3.371045947236917        0.6422480402351452E-01
     3.380705104678856        0.6335127680228997E-01
     3.390364262120796        0.6248755934104183E-01
     3.400023419562735        0.6163353471132054E-01
     3.409682577004675        0.6078908706664200E-01
     3.419341734446614        0.5995410163757769E-01
     3.429000891888554        0.5912846472666489E-01
     3.438660049330494        0.5831206370314336E-01
     3.448319206772433        0.5750478699752867E-01
     3.457978364214373        0.5670652409602904E-01
     3.467637521656312        0.5591716553481420E-01
     3.477296679098252        0.5513660289414295E-01
     3.486955836540192        0.5436472879235767E-01
     3.496614993982131        0.5360143687975119E-01
     3.506274151424071        0.5284662183231308E-01
     3.515933308866011        0.5210017934536323E-01
     3.525592466307950        0.5136200612707827E-01
     3.535251623749890        0.5063199989191466E-01
     3.544910781191829        0.4991005935393727E-01
     3.554569938633769        0.4919608422005711E-01
     3.564229096075708        0.4848997518318596E-01
     3.573888253517648        0.4779163391530920E-01
     3.583547410959588        0.4710096306048524E-01
     3.593206568401527        0.4641786622777516E-01
     3.602865725843467        0.4574224798410678E-01
     3.612524883285406        0.4507401384708033E-01
     3.622184040727346        0.4441307027771420E-01
     3.631843198169285        0.4375932467314147E-01
     3.641502355611225        0.4311268535925816E-01
     3.651161513053164        0.4247306158332635E-01
     3.660820670495104        0.4184036350653799E-01
     3.670479827937044        0.4121450219654205E-01
     3.680138985378983        0.4059538961993706E-01
     3.689798142820923        0.3998293863473570E-01
     3.699457300262862        0.3937706298280270E-01
     3.709116457704802        0.3877767728226736E-01
     3.718775615146742        0.3818469701991763E-01
     3.728434772588682        0.3759803854357607E-01
     3.738093930030621        0.3701761905446045E-01
     3.747753087472561        0.3644335659953375E-01
     3.757412244914500        0.3587517006384330E-01
     3.767071402356440        0.3531297916285390E-01
     3.776730559798379        0.3475670443477626E-01
     3.786389717240319        0.3420626723289304E-01
     3.796048874682258        0.3366158971788514E-01
     3.805708032124198        0.3312259485016020E-01
     3.815367189566138        0.3258920638218522E-01
     3.825026347008077        0.3206134885082543E-01
     3.834685504450017        0.3153894756969101E-01
     3.844344661891956        0.3102192862149446E-01
     3.854003819333896        0.3051021885041988E-01
     3.863662976775835        0.3000374585450459E-01
     3.873322134217775        0.2950243797803610E-01
     3.882981291659715        0.2900622430396694E-01
     3.892640449101654        0.2851503464634585E-01
     3.902299606543594        0.2802879954276976E-01
     3.911958763985533        0.2754745024685695E-01
     3.921617921427473        0.2707091872073965E-01
     3.931277078869412        0.2659913762758412E-01
     3.940936236311352        0.2613204032413277E-01
     3.950595393753292        0.2566956085327325E-01
     3.960254551195232        0.2521163393663459E-01
     3.969913708637171        0.2475819496720846E-01
     3.979572866079111        0.2430918000200438E-01
     3.989232023521050        0.2386452575473140E-01
     3.998891180962990        0.2342416958851150E-01
     4.008550338404929        0.2298804950862602E-01
     4.018209495846869        0.2255610415529020E-01
     4.027868653288809        0.2212827279646713E-01
     4.037527810730748        0.2170449532071222E-01
     4.047186968172688        0.2128471223005310E-01
     4.056846125614627        0.2086886463290543E-01
     4.066505283056567        0.2045689423702173E-01
     4.076164440498506        0.2004874334248244E-01
     4.085823597940446        0.1964435483472005E-01
     4.095482755382386        0.1924367217758236E-01
     4.105141912824325        0.1884663940643473E-01
     4.114801070266265        0.1845320112129620E-01
     4.124460227708204        0.1806330248002244E-01
     4.134119385150144        0.1767688919152310E-01
     4.143778542592083        0.1729390750902033E-01
     4.153437700034023        0.1691430422334854E-01
     4.163096857475963        0.1653802665628983E-01
     4.172756014917902        0.1616502265395777E-01
     4.182415172359842        0.1579524058021719E-01
     4.192074329801781        0.1542862931014748E-01
     4.201733487243721        0.1506513822354699E-01
     4.211392644685660        0.1470471719847516E-01
     4.221051802127600        0.1434731660484382E-01
     4.230710959569540        0.1399288729804589E-01
     4.240370117011479        0.1364138061262757E-01
     4.250029274453419        0.1329274835600299E-01
     4.259688431895358        0.1294694280220858E-01
     4.269347589337298        0.1260391668570285E-01
     4.279006746779238        0.1226362319520917E-01
     4.288665904221178        0.1192601596759894E-01
     4.298325061663117        0.1159104908181857E-01
     4.307984219105057        0.1125867705285760E-01
     4.317643376546997        0.1092885482575849E-01
     4.327302533988936        0.1060153776967381E-01
     4.336961691430876        0.1027668167196091E-01
     4.346620848872815        0.9954242732320963E-02
     4.356280006314755        0.9634177556980204E-02
     4.365939163756694        0.9316443152977709E-02
     4.375598321198634        0.9000996935692122E-02
     4.385257478640574        0.8687797067796854E-02
     4.394916636082513        0.8376804971915962E-02
     4.404575793524453        0.8067993127008918E-02
     4.414234950966392        0.7761358449300823E-02
     4.423894108408332        0.7456937466747768E-02
     4.433553265850271        0.7154818762436502E-02
     4.443212423292211        0.6855150097367003E-02
     4.452871580734151        0.6558139795296314E-02
     4.462530738176090        0.6264053289848433E-02
     4.472189895618030        0.5973206213487986E-02
     4.481849053059969        0.5685955384256005E-02
     4.491508210501909        0.5402688805344192E-02
     4.501167367943848        0.5123815502183110E-02
     4.510826525385788        0.4849755758824921E-02
     4.520485682827728        0.4580932105666091E-02
     4.530144840269667        0.4317761255196971E-02
     4.539803997711607        0.4060647073227420E-02
     4.549463155153546        0.3809974599597578E-02
     4.559122312595486        0.3566105085242345E-02
     4.568781470037425        0.3329371983952575E-02
     4.578440627479365        0.3100077821465295E-02
     4.588099784921305        0.2878491857392434E-02
     4.597758942363244        0.2664848453938795E-02
     4.607418099805184        0.2459346067312310E-02
     4.617077257247123        0.2262146781739665E-02
     4.626736414689063        0.2073376311097029E-02
     4.636395572131002        0.1893124398701975E-02
     4.646054729572942        0.1721445551317756E-02
     4.655713887014882        0.1558360048575066E-02
     4.665373044456821        0.1403855173546071E-02
     4.675032201898761        0.1257886613833928E-02
     4.684691359340700        0.1120379984906961E-02
     4.694350516782640        0.9912324279915082E-03
     4.704009674224579        0.8703142327075047E-03
     4.713668831666519        0.7574704281983602E-03
     4.723327989108459        0.6525222727366274E-03
     4.732987146550399        0.5552685447971293E-03
     4.742646303992339        0.4654864862389226E-03
     4.752305461434278        0.3829321439732924E-03
     4.761964618876218        0.3073396375313853E-03
     4.771623776318157        0.2384183833106900E-03
     4.781282933760097        0.1758460538392637E-03
     4.790942091202036        0.1192513885243568E-03
     4.800601248643976        0.6816822003745119E-04
     4.810260406085916        0.2186726962682743E-04
     4.819919563527855         0.000000000000000    
  0  4  2  0  0.000000   #orbital l, n, z, is_polarized, population
 500    0.6539883786801105E-02     3.263402009613751     # npts, delta, cutoff
     0.000000000000000       -0.3473774398469683    
    0.6539883786801105E-02   -0.3472911103183798    
    0.1307976757360221E-01   -0.3470234539549335    
    0.1961965136040331E-01   -0.3465774457460128    
    0.2615953514720442E-01   -0.3459532198587633    
    0.3269941893400553E-01   -0.3451509628566152    
    0.3923930272080663E-01   -0.3441709145006874    
    0.4577918650760773E-01   -0.3430133679333312    
    0.5231907029440884E-01   -0.3416786697983071    
    0.5885895408120995E-01   -0.3401672203584882    