<preamble>

<basis_specs>
===============================================================================
Sr                   Z=  38    Mass=  87.620        Charge= 0.17977+309
Lmxo=1 Lmxkb= 2    BasisType=split      Semic=T
L=0  Nsemic=1  Cnfigmx=5
          i=1  nzeta=1  polorb=0  (4s)  (semicore shell)
            splnorm:   0.15000    
               vcte:    40.000    
               rinn:    3.3160    
               qcoe:    0.0000    
               qyuk:    0.0000    
               qwid:   0.10000E-01
                rcs:    3.6844    
            lambdas:    1.0000    
          i=2  nzeta=2  polorb=0  (5s)  (to be polarized non-perturbatively)
            splnorm:   0.15000    
               vcte:    40.000    
               rinn:    8.4859    
               qcoe:    0.0000    
               qyuk:    0.0000    
               qwid:   0.10000E-01
                rcs:    9.4288      7.0457    
            lambdas:    1.0000      1.0000    
L=1  Nsemic=1  Cnfigmx=5
          i=1  nzeta=1  polorb=0  (4p)  (semicore shell)
            splnorm:   0.15000    
               vcte:    40.000    
               rinn:    3.9086    
               qcoe:    0.0000    
               qyuk:    0.0000    
               qwid:   0.10000E-01
                rcs:    4.3428    
            lambdas:    1.0000    
          i=2  nzeta=1  polorb=0  (5p)  (non-perturbative polarization shell)
            splnorm:   0.15000    
               vcte:    40.000    
               rinn:    8.4944    
               qcoe:    0.0000    
               qyuk:    0.0000    
               qwid:   0.10000E-01
                rcs:    9.4288    
            lambdas:    1.0000    
-------------------------------------------------------------------------------
L=0  Nkbl=2  erefs: 0.17977+309 0.17977+309
L=1  Nkbl=2  erefs: 0.17977+309 0.17977+309
L=2  Nkbl=1  erefs: 0.17977+309
===============================================================================
</basis_specs>

<pseudopotential_header>
 Sr pb nrl pcec
 ONCVPSP-3.2017-10-31Hamann's oncvpsp                        
 4s 2.00  r= 1.67/4p 6.00  r= 1.31/4d 0.00  r= 1.52/                    4s:4p:5s:
</pseudopotential_header>
</preamble>
Sr                            # Symbol
Sr                            # Label
   38                         # Atomic number
     10.0000000000                             # Valence charge
     87.6200000000        # Mass 
     120.330602742        # Self energy 
   1   5                      # Lmax for basis, no. of nl orbitals 
   2   6                      # Lmax for projectors, no. of nl KB projectors
# PAOs:__________________________
  0  4  1  0  2.000000   #orbital l, n, z, is_polarized, population
 500    0.7383653419325463E-02     3.684443056243406     # npts, delta, cutoff
     0.000000000000000        0.1539409854336734    
    0.7383653419325463E-02    0.1540642187172635    
    0.1476730683865093E-01    0.1544415120613763    
    0.2215096025797639E-01    0.1550700411043630    
    0.2953461367730185E-01    0.1559493619244713    
    0.3691826709662731E-01    0.1570788544924943    
    0.4430192051595278E-01    0.1584577225116535    
    0.5168557393527824E-01    0.1600849938740808    
    0.5906922735460370E-01    0.1619595212998403    
    0.6645288077392916E-01    0.1640799831106138    
    0.7383653419325463E-01    0.1664448841288396    
    0.8122018761258010E-01    0.1690525567001691    
    0.8860384103190555E-01    0.1719011618389096    
    0.9598749445123102E-01    0.1749886904966955    
    0.1033711478705565        0.1783129649548577    
    0.1107548012898819        0.1818716403410523    
    0.1181384547092074        0.1856622062707538    
    0.1255221081285329        0.1896819886142335    
    0.1329057615478583        0.1939281513896215    
    0.1402894149671838        0.1983976987826453    
    0.1476730683865093        0.2030874772935691    
    0.1550567218058347        0.2079941780118227    
    0.1624403752251602        0.2131143390187175    
    0.1698240286444856        0.2184443479185635    
    0.1772076820638111        0.2239804444983963    
    0.1845913354831366        0.2297187235163937    
    0.1919749889024620        0.2356551376189322    
    0.1993586423217875        0.2417855003860755    
    0.2067422957411130        0.2481054895051181    
    0.2141259491604384        0.2546106500716300    
    0.2215096025797639        0.2612963980172450    
    0.2288932559990894        0.2681580236632316    
    0.2362769094184148        0.2751906953986550    
    0.2436605628377403        0.2823894634817180    
    0.2510442162570657        0.2897492639626025    
    0.2584278696763912        0.2972649227258976    
    0.2658115230957167        0.3049311596504253    
    0.2731951765150421        0.3127425928840018    
    0.2805788299343676        0.3206937432303966    
    0.2879624833536931        0.3287790386454688    
    0.2953461367730185        0.3369928188391630    
    0.3027297901923440        0.3453293399797578    
    0.3101134436116694        0.3537827794964755    
    0.3174970970309949        0.3623472409762452    
    0.3248807504503204        0.3710167591501416    
    0.3322644038696458        0.3797853049647167    
    0.3396480572889713        0.3886467907331546    
    0.3470317107082967        0.3975950753609026    
    0.3544153641276222        0.4066239696401500    
    0.3617990175469477        0.4157272416072689    
    0.3691826709662732        0.4248986219570566    
    0.3765663243855986        0.4341318095073857    
    0.3839499778049241        0.4434204767076296    
    0.3913336312242495        0.4527582751840015    
    0.3987172846435750        0.4621388413147451    
    0.4061009380629004        0.4715558018279253    
    0.4134845914822259        0.4810027794143836    
    0.4208682449015514        0.4904733983482681    
    0.4282518983208768        0.4999612901074213    
    0.4356355517402023        0.5094600989857817    
    0.4430192051595278        0.5189634876898429    
    0.4504028585788532        0.5284651429111707    
    0.4577865119981787        0.5379587808669114    
    0.4651701654175042        0.5474381528001663    
    0.4725538188368296        0.5568970504321429    
    0.4799374722561551        0.5663293113579889    
    0.4873211256754805        0.5757288243782391    
    0.4947047790948060        0.5850895347579013    
    0.5020884325141315        0.5944054494052623    
    0.5094720859334569        0.6036706419626260    
    0.5168557393527824        0.6128792578013285    
    0.5242393927721078        0.6220255189135239    
    0.5316230461914333        0.6311037286934329    
    0.5390066996107588        0.6401082766008963    
    0.5463903530300842        0.6490336427004163    
    0.5537740064494097        0.6578744020689742    
    0.5611576598687352        0.6666252290662844    
    0.5685413132880607        0.6752809014613868    
    0.5759249667073861        0.6838363044097949    
    0.5833086201267116        0.6922864342757454    
    0.5906922735460370        0.7006264022944220    
    0.5980759269653625        0.7088514380694002    
    0.6054595803846879        0.7169568929009096    
    0.6128432338040134        0.7249382429409086    
    0.6202268872233389        0.7327910921713431    
    0.6276105406426643        0.7405111752023963    
    0.6349941940619898        0.7480943598878832    
    0.6423778474813152        0.7555366497554623    
    0.6497615009006408        0.7628341862496499    
    0.6571451543199662        0.7699832507861191    
    0.6645288077392917        0.7769802666162023    
    0.6719124611586171        0.7838218005008819    
    0.6792961145779426        0.7905045641940596    
    0.6866797679972680        0.7970254157352379    
    0.6940634214165935        0.8033813605522940    
    0.7014470748359189        0.8095695523752532    
    0.7088307282552444        0.8155872939625851    
    0.7162143816745699        0.8214320376418144    
    0.7235980350938953        0.8271013856666128    
    0.7309816885132209        0.8325930903930880    
    0.7383653419325463        0.8379050542780584    
    0.7457489953518718        0.8430353297027972    
    0.7531326487711972        0.8479821186257577    
    0.7605163021905227        0.8527437720683005    
    0.7678999556098481        0.8573187894376867    
    0.7752836090291736        0.8617058176918755    
    0.7826672624484990        0.8659036503509199    
    0.7900509158678245        0.8699112263600383    
    0.7974345692871500        0.8737276288096144    
    0.8048182227064754        0.8773520835176237    
    0.8122018761258009        0.8807839574801025    
    0.8195855295451264        0.8840227571954952    
    0.8269691829644519        0.8870681268688267    
    0.8343528363837773        0.8899198465017238    
    0.8417364898031028        0.8925778298744419    
    0.8491201432224282        0.8950421224261138    
    0.8565037966417537        0.8973128990394335    
    0.8638874500610791        0.8993904617360735    
    0.8712711034804046        0.9012752372890874    
    0.8786547568997300        0.9029677747585328    
    0.8860384103190555        0.9044687429565089    
    0.8934220637383810        0.9057789278477418    
    0.9008057171577064        0.9068992298917700    
    0.9081893705770320        0.9078306613326461    
    0.9155730239963574        0.9085743434419846    
    0.9229566774156829        0.9091315037210339    
    0.9303403308350083        0.9095034730672839    
    0.9377239842543338        0.9096916829109635    
    0.9451076376736592        0.9096976623265962    
    0.9524912910929847        0.9095230351245709    
    0.9598749445123101        0.9091695169274928    
    0.9672585979316356        0.9086389122358476    
    0.9746422513509611        0.9079331114873000    
    0.9820259047702865        0.9070540881136956    
    0.9894095581896121        0.9060038955995843    
    0.9967932116089375        0.9047846645458797    
     1.004176865028263        0.9033985997419753    
     1.011560518447588        0.9018479772494011    
     1.018944171866914        0.9001351414998575    
     1.026327825286239        0.8982625024101779    
     1.033711478705565        0.8962325325166277    
     1.041095132124890        0.8940477641305470    
     1.048478785544216        0.8917107865171140    
     1.055862438963541        0.8892242430990305    
     1.063246092382867        0.8865908286863287    
     1.070629745802192        0.8838132867334799    
     1.078013399221518        0.8808944066248341    
     1.085397052640843        0.8778370211756521    
     1.092780706060168        0.8746440036087190    
     1.100164359479494        0.8713182649041414    
     1.107548012898819        0.8678627516059219    
     1.114931666318145        0.8642804430576199    
     1.122315319737470        0.8605743488662255    
     1.129698973156796        0.8567475063957699    
     1.137082626576121        0.8528029782902813    
     1.144466279995447        0.8487438500257071    
     1.151849933414772        0.8445732274901695    
     1.159233586834098        0.8402942345920278    
     1.166617240253423        0.8359100108949913    
     1.174000893672749        0.8314237092796852    
     1.181384547092074        0.8268384936308714    
     1.188768200511400        0.8221575365495655    
     1.196151853930725        0.8173840170893778    
     1.203535507350050        0.8125211185163911    
     1.210919160769376        0.8075720260918611    
     1.218302814188701        0.8025399248770104    
     1.225686467608027        0.7974279975595110    
     1.233070121027352        0.7922394223011074    
     1.240453774446678        0.7869773706059530    
     1.247837427866003        0.7816450052093252    
     1.255221081285329        0.7762454779863475    
     1.262604734704654        0.7707819278798116    
     1.269988388123980        0.7652574788543330    
     1.277372041543305        0.7596752378575088    
     1.284755694962630        0.7540382928095850    
     1.292139348381956        0.7483497106315066    
     1.299523001801282        0.7426125352238988    
     1.306906655220607        0.7368297855545319    
     1.314290308639932        0.7310044538279946    
     1.321673962059258        0.7251395033930709    
     1.329057615478583        0.7192378670896119    
     1.336441268897909        0.7133024454042572    
     1.343824922317234        0.7073361042167575    
     1.351208575736560        0.7013416734695475    
     1.358592229155885        0.6953219452720004    
     1.365975882575211        0.6892796720676430    
     1.373359535994536        0.6832175651301232    
     1.380743189413862        0.6771382928647757    
     1.388126842833187        0.6710444790836766    
     1.395510496252512        0.6649387014465624    
     1.402894149671838        0.6588234899907494    
     1.410277803091163        0.6527013256359513    
     1.417661456510489        0.6465746387110757    
     1.425045109929814        0.6404458075735441    
     1.432428763349140        0.6343171572768894    
     1.439812416768465        0.6281909582860219    
     1.447196070187791        0.6220694252516671    
     1.454579723607116        0.6159547158457116    
     1.461963377026442        0.6098489296592701    
     1.469347030445767        0.6037541071655311    
     1.476730683865093        0.5976722287502844    
     1.484114337284418        0.5916052138120175    
     1.491497990703744        0.5855549199341858    
     1.498881644123069        0.5795231421315810    
     1.506265297542394        0.5735116121729010    
     1.513648950961720        0.5675219979815692    
     1.521032604381045        0.5615559031162999    
     1.528416257800371        0.5556148663334509    
     1.535799911219696        0.5497003612323491    
     1.543183564639022        0.5438137959851223    
     1.550567218058347        0.5379565131521999    
     1.557950871477673        0.5321297895842887    
     1.565334524896998        0.5263348364119470    
     1.572718178316324        0.5205727991229995    
     1.580101831735649        0.5148447577284346    
     1.587485485154974        0.5091517270169433    
     1.594869138574300        0.5034946568979564    
     1.602252791993625        0.4978744328332470    
     1.609636445412951        0.4922918763553673    
     1.617020098832276        0.4867477456155230    
     1.624403752251602        0.4812427360585734    
     1.631787405670927        0.4757774815200523    
     1.639171059090253        0.4703525554941262    
     1.646554712509578        0.4649684712063019    
     1.653938365928904        0.4596256811198416    
     1.661322019348229        0.4543245779980541    
     1.668705672767555        0.4490655000945955    
     1.676089326186880        0.4438487382419952    
     1.683472979606206        0.4386745436164262    
     1.690856633025531        0.4335431356094672    
     1.698240286444856        0.4284547088468702    
     1.705623939864182        0.4234094365925778    
     1.713007593283507        0.4184074705652118    
     1.720391246702833        0.4134489398786974    
     1.727774900122158        0.4085339515701076    
     1.735158553541484        0.4036625918482149    
     1.742542206960809        0.3988349271831193    
     1.749925860380135        0.3940510050206464    
     1.757309513799460        0.3893108544529830    
     1.764693167218786        0.3846144869362407    
     1.772076820638111        0.3799618969727881    
     1.779460474057436        0.3753530627874588    
     1.786844127476762        0.3707879469780401    
     1.794227780896087        0.3662664971481764    
     1.801611434315413        0.3617886465187083    
     1.808995087734738        0.3573543145210357    
     1.816378741154064        0.3529634073725613    
     1.823762394573389        0.3486158186341191    
     1.831146047992715        0.3443114297502829    
     1.838529701412040        0.3400501105729935    
     1.845913354831366        0.3358317198686263    
     1.853297008250691        0.3316561058093541    
     1.860680661670017        0.3275231064491327    
     1.868064315089342        0.3234325501844384    
     1.875447968508668        0.3193842562005988    
     1.882831621927993        0.3153780349039848    
     1.890215275347318        0.3114136883401767    
     1.897598928766644        0.3074910105989165    
     1.904982582185969        0.3036097882060687    
     1.912366235605295        0.2997698005027260    
     1.919749889024620        0.2959708200121468    
     1.927133542443946        0.2922126127948386    
     1.934517195863271        0.2884949387918489    
     1.941900849282597        0.2848175521568426    
     1.949284502701922        0.2811802015773570    
     1.956668156121248        0.2775826305852520    
     1.964051809540573        0.2740245778568167    
     1.971435462959898        0.2705057775030903    
     1.978819116379224        0.2670259593502656    
     1.986202769798550        0.2635848492105629    
     1.993586423217875        0.2601821691441552    
     2.000970076637200        0.2568176377120611    
     2.008353730056526        0.2534909702202334    
     2.015737383475851        0.2502018789555452    
     2.023121036895177        0.2469500734134839    
     2.030504690314502        0.2437352605178299    
     2.037888343733828        0.2405571448328221    
     2.045271997153153        0.2374154287678301    
     2.052655650572479        0.2343098127747170    
     2.060039303991804        0.2312399955382143    
     2.067422957411130        0.2282056741595436    
     2.074806610830455        0.2252065443333694    
     2.082190264249780        0.2222423005182645    
     2.089573917669106        0.2193126361010885    
     2.096957571088431        0.2164172435552398    
     2.104341224507757        0.2135558145929954    
     2.111724877927082        0.2107280403122406    
     2.119108531346408        0.2079336113376384    
     2.126492184765733        0.2051722179564246    
     2.133875838185059        0.2024435502489898    
     2.141259491604384        0.1997472982144503    
     2.148643145023710        0.1970831518912880    
     2.156026798443035        0.1944508014732300    
     2.163410451862361        0.1918499374205312    
     2.170794105281686        0.1892802505667694    
     2.178177758701012        0.1867414322213003    
     2.185561412120337        0.1842331742674942    
     2.192945065539663        0.1817551692568790    
     2.200328718958988        0.1793071104993143    
     2.207712372378313        0.1768886921493494    
     2.215096025797639        0.1744996092887930    
     2.222479679216964        0.1721395580056893    
     2.229863332636290        0.1698082354697888    
     2.237246986055615        0.1675053400046186    
     2.244630639474941        0.1652305711562058    
     2.252014292894266        0.1629836297586161    
     2.259397946313592        0.1607642179964420    
     2.266781599732917        0.1585720394641947    
     2.274165253152243        0.1564067992228062    
     2.281548906571568        0.1542682038532981    
     2.288932559990894        0.1521559615077729    
     2.296316213410219        0.1500697819576231    
     2.303699866829545        0.1480093766392316    
     2.311083520248870        0.1459744586971905    
     2.318467173668195        0.1439647430250997    
     2.325850827087521        0.1419799463039582    
     2.333234480506846        0.1400197870383278    
     2.340618133926172        0.1380839855903556    
     2.348001787345497        0.1361722642115843    
     2.355385440764822        0.1342843470727182    
     2.362769094184148        0.1324199602913976    
     2.370152747603473        0.1305788319581319    
     2.377536401022799        0.1287606921602241    
     2.384920054442124        0.1269652730039645    
     2.392303707861450        0.1251923086350564    
     2.399687361280775        0.1234415352574398    
     2.407071014700101        0.1217126911503335    
     2.414454668119427        0.1200055166837908    
     2.421838321538752        0.1183197543327085    
     2.429221974958077        0.1166551486894290    
     2.436605628377403        0.1150114464747911    
     2.443989281796728        0.1133883965478908    
     2.451372935216054        0.1117857499145042    
     2.458756588635379        0.1102032597342723    
     2.466140242054705        0.1086406813265518    
     2.473523895474030        0.1070977721751439    
     2.480907548893355        0.1055742919318691    
     2.488291202312681        0.1040700024190656    
     2.495674855732006        0.1025846676309411    
     2.503058509151332        0.1011180537339597    
     2.510442162570657        0.9966992906622844E-01
     2.517825815989983        0.9824006413596641E-01
     2.525209469409308        0.9682823161899066E-01
     2.532593122828634        0.9543420635537367E-01
     2.539976776247959        0.9405776534524814E-01
     2.547360429667285        0.9269868774382599E-01
     2.554744083086610        0.9135675485559222E-01
     2.562127736505936        0.9003175012779061E-01
     2.569511389925261        0.8872345914318686E-01
     2.576895043344587        0.8743166961216364E-01
     2.584278696763912        0.8615617136414384E-01
     2.591662350183237        0.8489675633840328E-01
     2.599046003602563        0.8365321857429123E-01
     2.606429657021888        0.8242535420087589E-01
     2.613813310441214        0.8121296142606620E-01
     2.621196963860539        0.8001584052521453E-01
     2.628580617279865        0.7883379382924360E-01
     2.635964270699190        0.7766662571228358E-01
     2.643347924118516        0.7651414257891508E-01
     2.650731577537841        0.7537615285099021E-01
     2.658115230957167        0.7425246695407176E-01
     2.665498884376492        0.7314289730349012E-01
     2.672882537795818        0.7204725829006899E-01
     2.680266191215143        0.7096536626557756E-01
     2.687649844634469        0.6989703952785412E-01
     2.695033498053794        0.6884209830567785E-01
     2.702417151473119        0.6780036474331705E-01
     2.709800804892445        0.6677166288498970E-01
     2.717184458311770        0.6575581865902301E-01
     2.724568111731096        0.6475265986187949E-01
     2.731951765150421        0.6376201614190363E-01
     2.739335418569746        0.6278371898307605E-01
     2.746719071989072        0.6181760168857083E-01
     2.754102725408398        0.6086349936421841E-01
     2.761486378827723        0.5992124890185431E-01
     2.768870032247049        0.5899068896256215E-01
     2.776253685666374        0.5807165995999661E-01
     2.783637339085700        0.5716400404355914E-01
     2.791020992505025        0.5626756508161759E-01
     2.798404645924351        0.5538218864456605E-01
     2.805788299343676        0.5450772198811787E-01
     2.813171952763001        0.5364401403650028E-01
     2.820555606182327        0.5279091536571602E-01
     2.827939259601652        0.5194827818682625E-01
     2.835322913020978        0.5111595632926454E-01
     2.842706566440303        0.5029380522436486E-01
     2.850090219859629        0.4948168188886244E-01
     2.857473873278954        0.4867944490855099E-01
     2.864857526698279        0.4788695442191515E-01
     2.872241180117605        0.4710407210405081E-01
     2.879624833536930        0.4633066115063703E-01
     2.887008486956256        0.4556658626202892E-01
     2.894392140375581        0.4481171362750436E-01
     2.901775793794907        0.4406591090955523E-01
     2.909159447214232        0.4332904722849901E-01
     2.916543100633558        0.4260099314712078E-01
     2.923926754052883        0.4188162065550530E-01
     2.931310407472209        0.4117080315598120E-01
     2.938694060891534        0.4046841544823532E-01
     2.946077714310860        0.3977433371463458E-01
     2.953461367730185        0.3908843550564366E-01
     2.960845021149511        0.3841059972542433E-01
     2.968228674568836        0.3774070661753445E-01
     2.975612327988161        0.3707863775083661E-01
     2.982995981407487        0.3642427600552858E-01
     2.990379634826812        0.3577750555930735E-01
     2.997763288246138        0.3513821187367604E-01
     3.005146941665463        0.3450628168036936E-01
     3.012530595084789        0.3388160296792089E-01
     3.019914248504114        0.3326406496834160E-01
     3.027297901923440        0.3265355814391182E-01
     3.034681555342765        0.3204997417407381E-01
     3.042065208762091        0.3145320594246903E-01
     3.049448862181416        0.3086314752399948E-01
     3.056832515600742        0.3027969417202171E-01
     3.064216169020067        0.2970274230561197E-01
     3.071599822439393        0.2913218949689193E-01
     3.078983475858718        0.2856793445850936E-01
     3.086367129278043        0.2800987703103363E-01
     3.093750782697369        0.2745791817050895E-01
     3.101134436116694        0.2691195993602815E-01
     3.108518089536020        0.2637190547734033E-01
     3.115901742955345        0.2583765902260749E-01
     3.123285396374671        0.2530912586600183E-01
     3.130669049793996        0.2478621235546876E-01
     3.138052703213322        0.2426882588047963E-01
     3.145436356632647        0.2375687485979204E-01
     3.152820010051973        0.2325026872935695E-01
     3.160203663471298        0.2274891793002435E-01
     3.167587316890624        0.2225273389541306E-01
     3.174970970309949        0.2176162903975715E-01
     3.182354623729275        0.2127551674574158E-01
     3.189738277148600        0.2079431135248454E-01
     3.197121930567925        0.2031792814331598E-01
     3.204505583987251        0.1984628333370117E-01
     3.211889237406576        0.1937929405915274E-01
     3.219272890825902        0.1891687836312300E-01
     3.226656544245227        0.1845895518503269E-01
     3.234040197664553        0.1800544434814436E-01
     3.241423851083878        0.1755626654753957E-01
     3.248807504503203        0.1711134333811219E-01
     3.256191157922529        0.1667059712255611E-01
     3.263574811341854        0.1623395113944949E-01
     3.270958464761180        0.1580132945128567E-01
     3.278342118180506        0.1537265693254363E-01
     3.285725771599831        0.1494785925781542E-01
     3.293109425019157        0.1452686288995298E-01
     3.300493078438482        0.1410959506826538E-01
     3.307876731857808        0.1369598379676860E-01
     3.315260385277133        0.1328595783242596E-01
     3.322644038696458        0.1287944667347863E-01
     3.330027692115784        0.1247638054781506E-01
     3.337411345535109        0.1207669040145330E-01
     3.344794998954435        0.1168030790017813E-01
     3.352178652373760        0.1128716576014993E-01
     3.359562305793085        0.1089720023947036E-01
     3.366945959212411        0.1051035889830803E-01
     3.374329612631736        0.1012661396705949E-01
     3.381713266051062        0.9745977595640852E-02
     3.389096919470387        0.9368514500320543E-02
     3.396480572889713        0.8994349418849353E-02
     3.403864226309038        0.8623668928110138E-02
     3.411247879728364        0.8256718484786192E-02
     3.418631533147689        0.7893796029625028E-02
     3.426015186567015        0.7535243478130188E-02
     3.433398839986340        0.7181437187189766E-02
     3.440782493405666        0.6832778203691542E-02
     3.448166146824991        0.6489682844320032E-02
     3.455549800244317        0.6152573950851607E-02
     3.462933453663642        0.5821873013758213E-02
     3.470317107082967        0.5497993250768528E-02
     3.477700760502293        0.5181333655921124E-02
     3.485084413921618        0.4872273989276328E-02
     3.492468067340944        0.4571170650279805E-02
     3.499851720760269        0.4278353362983268E-02
     3.507235374179595        0.3994122594799777E-02
     3.514619027598920        0.3718747629321435E-02
     3.522002681018246        0.3452465215721163E-02
     3.529386334437571        0.3195478721244987E-02
     3.536769987856897        0.2947957718139518E-02
     3.544153641276222        0.2710037941488463E-02
     3.551537294695548        0.2481821559383178E-02
     3.558920948114873        0.2263377701308586E-02
     3.566304601534199        0.2054743194206220E-02
     3.573688254953524        0.1855923458165650E-02
     3.581071908372849        0.1666893514515007E-02
     3.588455561792175        0.1487599057555433E-02
     3.595839215211500        0.1317957536065994E-02
     3.603222868630826        0.1157859179741398E-02
     3.610606522050151        0.1007167884795849E-02
     3.617990175469477        0.8657218340294697E-03
     3.625373828888802        0.7333336532022248E-03
     3.632757482308128        0.6097897615032589E-03
     3.640141135727453        0.4948482750555476E-03
     3.647524789146779        0.3882341493218739E-03
     3.654908442566104        0.2896285612122102E-03
     3.662292095985430        0.1986446362982929E-03
     3.669675749404755        0.1147645761396363E-03
     3.677059402824081        0.3711439995938986E-04
     3.684443056243406         0.000000000000000    
  0  5  1  0  2.000000   #orbital l, n, z, is_polarized, population
 500    0.1889540895133425E-01     9.428809066715790     # npts, delta, cutoff
     0.000000000000000        0.5991830938779533E-01
    0.1889540895133425E-01    0.6022804870420870E-01
    0.3779081790266849E-01    0.6115841092442972E-01
    0.5668622685400274E-01    0.6270286946872761E-01
    0.7558163580533699E-01    0.6485226395023412E-01
    0.9447704475667124E-01    0.6759388231908485E-01
    0.1133724537080055        0.7091156552058726E-01
    0.1322678626593397        0.7478583340382307E-01
    0.1511632716106740        0.7919402802524933E-01
    0.1700586805620082        0.8411047153643307E-01