<preamble>

<basis_specs>
===============================================================================
Ti                   Z=  22    Mass=  47.867        Charge= 0.17977+309
Lmxo=2 Lmxkb= 2    BasisType=split      Semic=T
L=0  Nsemic=1  Cnfigmx=4
          i=1  nzeta=1  polorb=0  (3s)  (semicore shell)
            splnorm:   0.15000    
               vcte:    40.000    
               rinn:    2.6781    
               qcoe:    0.0000    
               qyuk:    0.0000    
               qwid:   0.10000E-01
                rcs:    2.9727    
            lambdas:    1.0000    
          i=2  nzeta=2  polorb=0  (4s)  (to be polarized non-perturbatively)
            splnorm:   0.15000    
               vcte:    40.000    
               rinn:    7.3100    
               qcoe:    0.0000    
               qyuk:    0.0000    
               qwid:   0.10000E-01
                rcs:    8.1141      5.9129    
            lambdas:    1.0000      1.0000    
L=1  Nsemic=1  Cnfigmx=4
          i=1  nzeta=1  polorb=0  (3p)  (semicore shell)
            splnorm:   0.15000    
               vcte:    40.000    
               rinn:    3.0207    
               qcoe:    0.0000    
               qyuk:    0.0000    
               qwid:   0.10000E-01
                rcs:    3.3530    
            lambdas:    1.0000    
          i=2  nzeta=1  polorb=0  (4p)  (non-perturbative polarization shell)
            splnorm:   0.15000    
               vcte:    40.000    
               rinn:    7.3100    
               qcoe:    0.0000    
               qyuk:    0.0000    
               qwid:   0.10000E-01
                rcs:    8.1141    
            lambdas:    1.0000    
L=2  Nsemic=0  Cnfigmx=3
          i=1  nzeta=2  polorb=0  (3d)
            splnorm:   0.15000    
               vcte:    40.000    
               rinn:    5.1229    
               qcoe:    0.0000    
               qyuk:    0.0000    
               qwid:   0.10000E-01
                rcs:    5.6921      3.6367    
            lambdas:    1.0000      1.0000    
-------------------------------------------------------------------------------
L=0  Nkbl=2  erefs: 0.17977+309 0.17977+309
L=1  Nkbl=2  erefs: 0.17977+309 0.17977+309
L=2  Nkbl=1  erefs: 0.17977+309
===============================================================================
</basis_specs>

<pseudopotential_header>
 Ti pb nrl pcec
 ONCVPSP-3.2017-10-31Hamann's oncvpsp                        
 3s 2.00  r= 1.36/3p 6.00  r= 1.31/3d 2.00  r= 1.66/                    3s:3p:3d:4s:
</pseudopotential_header>
</preamble>
Ti                            # Symbol
Ti                            # Label
   22                         # Atomic number
     12.0000000000                             # Valence charge
     47.8670000000        # Mass 
     177.050889326        # Self energy 
   2   7                      # Lmax for basis, no. of nl orbitals 
   2   6                      # Lmax for projectors, no. of nl KB projectors
# PAOs:__________________________
  0  3  1  0  2.000000   #orbital l, n, z, is_polarized, population
 500    0.5957319909852455E-02     2.972702635016375     # npts, delta, cutoff
     0.000000000000000        0.9470240513984726    
    0.5957319909852455E-02    0.9471134653130393    
    0.1191463981970491E-01    0.9474382939552097    
    0.1787195972955737E-01    0.9479793639377432    
    0.2382927963940982E-01    0.9487361692224224    
    0.2978659954926227E-01    0.9497080115094719    
    0.3574391945911473E-01    0.9508939955520005    
    0.4170123936896718E-01    0.9522930291879798    
    0.4765855927881964E-01    0.9539038241147471    
    0.5361587918867209E-01    0.9557248969639702    
    0.5957319909852454E-01    0.9577545705882586    
    0.6553051900837700E-01    0.9599909755347532    
    0.7148783891822946E-01    0.9624320516970027    
    0.7744515882808191E-01    0.9650755501412834    
    0.8340247873793437E-01    0.9679190351051861    
    0.8935979864778681E-01    0.9709598861668801    
    0.9531711855763927E-01    0.9741953005836836    
    0.1012744384674917        0.9776222957985922    
    0.1072317583773442        0.9812377121133575    
    0.1131890782871966        0.9850382155266302    
    0.1191463981970491        0.9890203007355693    
    0.1251037181069015        0.9931802942991728    
    0.1310610380167540        0.9975143579614484    
    0.1370183579266065         1.002018492132424    
    0.1429756778364589         1.006688539524778    
    0.1489329977463114         1.011520188943745    
    0.1548903176561638         1.016508979227784    
    0.1608476375660163         1.021650303337275    
    0.1668049574758687         1.026939412588349    
    0.1727622773857212         1.032371421028793    
    0.1787195972955736         1.037941309952690    
    0.1846769172054261         1.043643932550340    
    0.1906342371152785         1.049474018689757    
    0.1965915570251310         1.055426179825822    
    0.2025488769349835         1.061494914032970    
    0.2085061968448359         1.067674611157082    
    0.2144635167546884         1.073959558082015    
    0.2204208366645408         1.080343944105991    
    0.2263781565743933         1.086821866422847    
    0.2323354764842457         1.093387335702951    
    0.2382927963940982         1.100034281768306    
    0.2442501163039506         1.106756559356262    
    0.2502074362138031         1.113547953965885    
    0.2561647561236555         1.120402187781014    
    0.2621220760335080         1.127312925663664    
    0.2680793959433604         1.134273781211319    
    0.2740367158532129         1.141278322871486    
    0.2799940357630654         1.148320080106644    
    0.2859513556729179         1.155392549602565    
    0.2919086755827703         1.162489201512851    
    0.2978659954926227         1.169603485732331    
    0.3038233154024752         1.176728838191853    
    0.3097806353123276         1.183858687166851    
    0.3157379552221801         1.190986459591965    
    0.3216952751320326         1.198105587373881    
    0.3276525950418850         1.205209513694475    
    0.3336099149517375         1.212291699296241    
    0.3395672348615899         1.219345628741962    
    0.3455245547714424         1.226364816640529    
    0.3514818746812948         1.233342813830763    
    0.3574391945911473         1.240273213515101    
    0.3633965145009997         1.247149657335030    
    0.3693538344108522         1.253965841380166    
    0.3753111543207047         1.260715522122898    
    0.3812684742305571         1.267392522270625    
    0.3872257941404095         1.273990736527661    
    0.3931831140502620         1.280504137258986    
    0.3991404339601144         1.286926780048184    
    0.4050977538699669         1.293252809141957    
    0.4110550737798194         1.299476462773867    
    0.4170123936896718         1.305592078360065    
    0.4229697135995243         1.311594097559962    
    0.4289270335093767         1.317477071195047    
    0.4348843534192292         1.323235664019250    
    0.4408416733290816         1.328864659334505    
    0.4467989932389341         1.334358963445436    
    0.4527563131487866         1.339713609947367    
    0.4587136330586390         1.344923763842104    
    0.4646709529684915         1.349984725476355    
    0.4706282728783439         1.354891934297834    
    0.4765855927881963         1.359640972424529    
    0.4825429126980488         1.364227568022944    
    0.4885002326079013         1.368647598491391    
    0.4944575525177538         1.372897093444933    
    0.5004148724276062         1.376972237498819    
    0.5063721923374587         1.380869372847653    
    0.5123295122473110         1.384585001637997    
    0.5182868321571635         1.388115788132431    
    0.5242441520670160         1.391458560663514    
    0.5302014719768685         1.394610313376483    
    0.5361587918867209         1.397568207759934    
    0.5421161117965734         1.400329573964151    
    0.5480734317064259         1.402891911907086    
    0.5540307516162782         1.405252892168465    
    0.5599880715261307         1.407410356672853    
    0.5659453914359832         1.409362319162901    
    0.5719027113458357         1.411106965464380    
    0.5778600312556881         1.412642653545013    
    0.5838173511655406         1.413967913369490    
    0.5897746710753931         1.415081446553323    
    0.5957319909852454         1.415982125818672    
    0.6016893108950979         1.416668994255569    
    0.6076466308049504         1.417141264392243    
    0.6136039507148028         1.417398317078647    
    0.6195612706246553         1.417439700187516    
    0.6255185905345078         1.417265127137635    
    0.6314759104443602         1.416874475244224    
    0.6374332303542126         1.416267783901653    
    0.6433905502640651         1.415445252603826    
    0.6493478701739176         1.414407238807955    
    0.6553051900837700         1.413154255647516    
    0.6612625099936225         1.411686969500453    
    0.6672198299034749         1.410006197418767    
    0.6731771498133273         1.408112904425880    
    0.6791344697231798         1.406008200688251    
    0.6850917896330323         1.403693338567782    
    0.6910491095428848         1.401169709561705    
    0.6970064294527372         1.398438841136709    
    0.7029637493625897         1.395502393464089    
    0.7089210692724421         1.392362156062739    
    0.7148783891822945         1.389020044356806    
    0.7208357090921470         1.385478096154913    
    0.7267930290019995         1.381738468057724    
    0.7327503489118519         1.377803431800586    
    0.7387076688217044         1.373675370538041    
    0.7446649887315568         1.369356775076819    
    0.7506223086414093         1.364850240063859    
    0.7565796285512617         1.360158460135826    
    0.7625369484611142         1.355284226036449    
    0.7684942683709667         1.350230420707865    
    0.7744515882808191         1.345000017179209    
    0.7804089081906715         1.339596076852140    
    0.7863662281005240         1.334021727859741    
    0.7923235480103765         1.328280182498021    
    0.7982808679202289         1.322374725578314    
    0.8042381878300814         1.316308710440206    
    0.8101955077399339         1.310085555020935    
    0.8161528276497862         1.303708737942235    
    0.8221101475596387         1.297181794619177    
    0.8280674674694912         1.290508313395279    
    0.8340247873793436         1.283691931707985    
    0.8399821072891961         1.276736332288356    
    0.8459394271990486         1.269645239398590    
    0.8518967471089011         1.262422415110798    
    0.8578540670187534         1.255071655630156    
    0.8638113869286059         1.247596787665391    
    0.8697687068384584         1.240001664849324    
    0.8757260267483108         1.232290164211928    
    0.8816833466581633         1.224466182708204    
    0.8876406665680158         1.216533633802886    
    0.8935979864778681         1.208496444113861    
    0.8995553063877206         1.200358550115939    
    0.9055126262975731         1.192123894906404    
    0.9114699462074256         1.183796425033629    
    0.9174272661172780         1.175380087389756    
    0.9233845860271305         1.166878826168484    
    0.9293419059369830         1.158296579888547    
    0.9352992258468353         1.149637278483610    
    0.9412565457566878         1.140904840458892    
    0.9472138656665403         1.132103170114914    
    0.9531711855763927         1.123236154838503    
    0.9591285054862452         1.114307662461138    
    0.9650858253960977         1.105321538684589    
    0.9710431453059502         1.096281604573657    
    0.9770004652158025         1.087191654115894    
    0.9829577851256550         1.078055451847902    
    0.9889151050355075         1.068876730547935    
    0.9948724249453599         1.059659188994282    
     1.000829744855212         1.050406489789090    
     1.006787064765065         1.041122257247006    
     1.012744384674917         1.031810075348224    
     1.018701704584770         1.022473485755263    
     1.024659024494622         1.013115985893061    
     1.030616344404475         1.003741027091690    
     1.036573664314327        0.9943520127912615    
     1.042530984224180        0.9849522968083642    
     1.048488304134032        0.9755451816636264    
     1.054445624043884        0.9661339169697961    
     1.060402943953737        0.9567216978799501    
     1.066360263863589        0.9473116635953289    
     1.072317583773442        0.9379068959324431    
     1.078274903683294        0.9285104179490850    
     1.084232223593147        0.9191251926289005    
     1.090189543502999        0.9097541216243200    
     1.096146863412852        0.9004000440575118    
     1.102104183322704        0.8910657353793309    
     1.108061503232556        0.8817539062859269    
     1.114018823142409        0.8724672016932257    
     1.119976143052261        0.8632081997689495    
     1.125933462962114        0.8539794110224366    
     1.131890782871966        0.8447832774521258    
     1.137848102781819        0.8356221717509491    
     1.143805422691671        0.8264983965696910    
     1.149762742601524        0.8174141838384852    
     1.155720062511376        0.8083716941467268    
     1.161677382421229        0.7993730161814847    
     1.167634702331081        0.7904201662248588    
     1.173592022240934        0.7815150877103486    
     1.179549342150786        0.7726596508386707    
     1.185506662060638        0.7638556522532275    
     1.191463981970491        0.7551048147755165    
     1.197421301880343        0.7464087872007846    
     1.203378621790196        0.7377691441541525    
     1.209335941700048        0.7291873860075272    
     1.215293261609901        0.7206649388574861    
     1.221250581519753        0.7122031545643154    
     1.227207901429606        0.7038033108523805    
     1.233165221339458        0.6954666114719820    
     1.239122541249311        0.6871941864226654    
     1.245079861159163        0.6789870922381579    
     1.251037181069016        0.6708463123327760    
     1.256994500978868        0.6627727574094576    
     1.262951820888720        0.6547672659287228    
     1.268909140798573        0.6468306046354854    
     1.274866460708425        0.6389634691586583    
     1.280823780618278        0.6311664846537025    
     1.286781100528130        0.6234402065106622    
     1.292738420437983        0.6157851211391273    
     1.298695740347835        0.6082016467978402    
     1.304653060257688        0.6006901344470377    
     1.310610380167540        0.5932508687116032    
     1.316567700077393        0.5858840688566397    
     1.322525019987245        0.5785898896927639    
     1.328482339897097        0.5713684231108697    
     1.334439659806950        0.5642196998058717    
     1.340396979716802        0.5571436897864389    
     1.346354299626655        0.5501403014156713    
     1.352311619536507        0.5432093822013503    
     1.358268939446360        0.5363507244324014    
     1.364226259356212        0.5295640740104887    
     1.370183579266065        0.5228491399813030    
     1.376140899175917        0.5162056047696086    
     1.382098219085770        0.5096331333151588    
     1.388055538995622        0.5031313787338879    
     1.394012858905474        0.4966999821622110    
     1.399970178815327        0.4903385711258457    
     1.405927498725179        0.4840467590934949    
     1.411884818635032        0.4778241468293315    
     1.417842138544884        0.4716703235672970    
     1.423799458454737        0.4655848677264682    
     1.429756778364589        0.4595673474229554    
     1.435714098274442        0.4536173210752322    
     1.441671418184294        0.4477343380015517    
     1.447628738094146        0.4419179389953963    
     1.453586058003999        0.4361676568784295    
     1.459543377913851        0.4304830170327507    
     1.465500697823704        0.4248635379138666    
     1.471458017733556        0.4193087315445707    
     1.477415337643409        0.4138181039904623    
     1.483372657553261        0.4083911558176405    
     1.489329977463114        0.4030273825331673    
     1.495287297372966        0.3977262750088793    
     1.501244617282819        0.3924873198890463    
     1.507201937192671        0.3873099999824218    
     1.513159257102523        0.3821937946392033    
     1.519116577012376        0.3771381801133671    
     1.525073896922228        0.3721426299108305    
     1.531031216832081        0.3672066151239939    
     1.536988536741933        0.3623296047530103    
     1.542945856651786        0.3575110660142178    
     1.548903176561638        0.3527504646362714    
     1.554860496471491        0.3480472651442496    
     1.560817816381343        0.3434009311321217    
     1.566775136291195        0.3388109255241202    
     1.572732456201048        0.3342767108252314    
     1.578689776110900        0.3297977493611251    
     1.584647096020753        0.3253735035080828    
     1.590604415930605        0.3210034359130775    
     1.596561735840458        0.3166870097042770    
     1.602519055750310        0.3124236886925910    
     1.608476375660163        0.3082129375646800    
     1.614433695570015        0.3040542220655370    
     1.620391015479868        0.2999470091749481    
     1.626348335389720        0.2958907672781148    
     1.632305655299572        0.2918849663240489    
     1.638262975209425        0.2879290779717720    
     1.644220295119277        0.2840225757416973    
     1.650177615029130        0.2801649351421784    
     1.656134934938982        0.2763556338395299    
     1.662092254848835        0.2725941517436853    
     1.668049574758687        0.2688799711403938    
     1.674006894668540        0.2652125767984352    
     1.679964214578392        0.2615914560830296    
     1.685921534488245        0.2580160990640064    
     1.691878854398097        0.2544859986005690    
     1.697836174307950        0.2510006504176404    
     1.703793494217802        0.2475595532170742    
     1.709750814127655        0.2441622087415083    
     1.715708134037507        0.2408081218733696    
     1.721665453947359        0.2374968006825043    
     1.727622773857212        0.2342277564988089    
     1.733580093767064        0.2310005039773073    
     1.739537413676917        0.2278145611563464    
     1.745494733586769        0.2246694495109669    
     1.751452053496622        0.2215646940038572    
     1.757409373406474        0.2184998231322623    
     1.763366693316327        0.2154743689714164    
     1.769324013226179        0.2124878672144944    
     1.775281333136032        0.2095398572092485    
     1.781238653045884        0.2066298819915184    
     1.787195972955736        0.2037574883156998    
     1.793153292865589        0.2009222266822503    
     1.799110612775441        0.1981236513623411    
     1.805067932685294        0.1953613204198527    
     1.811025252595146        0.1926347957307168    
     1.816982572504999        0.1899436429997435    
     1.822939892414851        0.1872874317750302    
     1.828897212324704        0.1846657354600707    
     1.834854532234556        0.1820781313236180    
     1.840811852144409        0.1795242005074021    
     1.846769172054261        0.1770035280318082    
     1.852726491964113        0.1745157027995777    
     1.858683811873966        0.1720603175976208    
     1.864641131783818        0.1696369690970261    
     1.870598451693671        0.1672452578513277    
     1.876555771603523        0.1648847882931190    
     1.882513091513376        0.1625551687290813    
     1.888470411423228        0.1602560113334977    
     1.894427731333081        0.1579869321403080    
     1.900385051242933        0.1557475510337860    
     1.906342371152785        0.1535374917379037    
     1.912299691062638        0.1513563818044303    
     1.918257010972490        0.1492038525998289    
     1.924214330882343        0.1470795392910150    
     1.930171650792195        0.1449830808300486    
     1.936128970702048        0.1429141199377708    
     1.942086290611900        0.1408723030864760    
     1.948043610521753        0.1388572804816575    
     1.954000930431605        0.1368687060428885    
     1.959958250341458        0.1349062373838564    
     1.965915570251310        0.1329695357916293    
     1.971872890161162        0.1310582662051824    
     1.977830210071015        0.1291720971932405    
     1.983787529980867        0.1273107009314603    
     1.989744849890720        0.1254737531790118    
     1.995702169800572        0.1236609332545919    
     2.001659489710425        0.1218719240118996    
     2.007616809620277        0.1201064118146315    
     2.013574129530129        0.1183640865110142    
     2.019531449439982        0.1166446414079188    
     2.025488769349835        0.1149477732445676    
     2.031446089259687        0.1132731821659163    
     2.037403409169539        0.1116205716956927    
     2.043360729079392        0.1099896487091515    
     2.049318048989244        0.1083801234055282    
     2.055275368899097        0.1067917092803079    
     2.061232688808949        0.1052241230972536    
     2.067190008718802        0.1036770848602602    
     2.073147328628654        0.1021503177850097    
     2.079104648538507        0.1006435482705457    
     2.085061968448359        0.9915650587070383E-01
     2.091019288358212        0.9768892326546158E-01
     2.096976608268064        0.9624053623217282E-01
     2.102933928177916        0.9481108361680241E-01
     2.108891248087769        0.9340030730511052E-01
     2.114848567997621        0.9200795219381440E-01
     2.120805887907474        0.9063376616173598E-01
     2.126763207817326        0.8927750004097731E-01
     2.132720527727179        0.8793890758813862E-01
     2.138677847637031        0.8661774545556429E-01
     2.144635167546884        0.8531377316263837E-01
     2.150592487456736        0.8402675306713768E-01
     2.156549807366589        0.8275645033673606E-01
     2.162507127276441        0.8150263292055548E-01
     2.168464447186293        0.8026507152102898E-01
     2.174421767096146        0.7904353956497451E-01
     2.180379087005998        0.7783781317606431E-01
     2.186336406915851        0.7664767114663314E-01
     2.192293726825703        0.7547289490923449E-01
     2.198251046735556        0.7431326851031353E-01
     2.204208366645408        0.7316857858201961E-01
     2.210165686555261        0.7203861431414772E-01
     2.216123006465113        0.7092316742711563E-01
     2.222080326374966        0.6982203214455576E-01
     2.228037646284818        0.6873500516718695E-01
     2.233994966194671        0.6766188564536434E-01
     2.239952286104523        0.6660247515289916E-01
     2.245909606014375        0.6555657766442197E-01
     2.251866925924228        0.6452399951853224E-01
     2.257824245834080        0.6350454939874234E-01
     2.263781565743933        0.6249803830759602E-01
     2.269738885653785        0.6150427953679068E-01
     2.275696205563638        0.6052308863889297E-01
     2.281653525473490        0.5955428343247852E-01
     2.287610845383343        0.5859768393656214E-01
     2.293568165293195        0.5765311235963289E-01
     2.299525485203048        0.5672039307527224E-01
     2.305482805112900        0.5579935259852660E-01
     2.311440125022752        0.5488981956137760E-01
     2.317397444932605        0.5399162468787953E-01
     2.323354764842458        0.5310460076974082E-01
     2.329312084752310        0.5222858264194320E-01
     2.335269404662162        0.5136340715845462E-01
     2.341226724572015        0.5050891316848066E-01
     2.347184044481867        0.4966494149282483E-01
     2.353141364391719        0.4883133490034930E-01
     2.359098684301572        0.4800793808462226E-01
     2.365056004211425        0.4719459764071650E-01
     2.371013324121277        0.4639116204208426E-01
     2.376970644031129        0.4559748161763410E-01
     2.382927963940982        0.4481340852894940E-01
     2.388885283850834        0.4403879674768527E-01
     2.394842603760687        0.4327350203308590E-01
     2.400799923670539        0.4251738190965493E-01
     2.406757243580392        0.4177029564498714E-01
     2.412714563490244        0.4103210422773475E-01
     2.418671883400096        0.4030267034576585E-01
     2.424629203309949        0.3958185836441425E-01
     2.430586523219802        0.3886953430490939E-01
     2.436543843129654        0.3816556582295297E-01
     2.442501163039506        0.3746982218743401E-01
     2.448458482949359        0.3678217425933872E-01
     2.454415802859211        0.3610249447074259E-01
     2.460373122769064        0.3543065680399665E-01
     2.466330442678916        0.3476653677105353E-01
     2.472287762588769        0.3411001139293968E-01
     2.478245082498621        0.3346095917941664E-01
     2.484202402408473        0.3281926010873375E-01
     2.490159722318326        0.3218479560757507E-01
     2.496117042228179        0.3155744853114898E-01
     2.502074362138031        0.3093710314342870E-01
     2.508031682047883        0.3032364509757718E-01
     2.513989001957736        0.2971696141647673E-01
     2.519946321867588        0.2911694047344961E-01
     2.525903641777441        0.2852347197312514E-01
     2.531860961687293        0.2793644693246178E-01
     2.537818281597146        0.2735575766195255E-01
     2.543775601506998        0.2678129774694420E-01
     2.549732921416850        0.2621296202914461E-01
     2.555690241326703        0.2565064658828155E-01
     2.561647561236556        0.2509424872391721E-01
     2.567604881146408        0.2454366693744570E-01
     2.573562201056260        0.2399880091421257E-01
     2.579519520966113        0.2345955150581814E-01
     2.585476840875965        0.2292582071257512E-01
     2.591434160785818        0.2239751166612263E-01
     2.597391480695670        0.2187452861222052E-01
     2.603348800605523        0.2135677689367436E-01
     2.609306120515375        0.2084416293343450E-01
     2.615263440425228        0.2033659421785442E-01
     2.621220760335080        0.1983397928010432E-01
     2.627178080244933        0.1933622768375544E-01
     2.633135400154785        0.1884325000651020E-01
     2.639092720064637        0.1835495782408908E-01
     2.645050039974490        0.1787126369428233E-01
     2.651007359884342        0.1739208114115244E-01
     2.656964679794195        0.1691732463939817E-01
     2.662921999704047        0.1644690959887660E-01
     2.668879319613900        0.1598075234926318E-01
     2.674836639523752        0.1551877012487930E-01
     2.680793959433605        0.1506088104966766E-01
     2.686751279343457        0.1460700412231606E-01
     2.692708599253309        0.1415705920154755E-01
     2.698665919163162        0.1371096699306742E-01
     2.704623239073014        0.1326864912282262E-01
     2.710580558982867        0.1283002919248308E-01
     2.716537878892719        0.1239503748307095E-01
     2.722495198802572        0.1196362129931730E-01
     2.728452518712424        0.1153575902227096E-01
     2.734409838622277        0.1111147360142922E-01
     2.740367158532129        0.1069084212177569E-01
     2.746324478441982        0.1027400016503994E-01
     2.752281798351834        0.9861141290096988E-02
     2.758239118261686        0.9452512726012314E-02
     2.764196438171539        0.9048408534297480E-02
     2.770153758081392        0.8649161352575308E-02
     2.776111077991244        0.8255133581681378E-02
     2.782068397901096        0.7866708626634180E-02
     2.788025717810949        0.7484282590719380E-02
     2.793983037720801        0.7108256660688512E-02
     2.799940357630654        0.6739030305416983E-02
     2.805897677540506        0.6376995331309608E-02
     2.811854997450359        0.6022530786165044E-02
     2.817812317360211        0.5675998671352254E-02
     2.823769637270063        0.5337740403946935E-02
     2.829726957179916        0.5008073961428585E-02
     2.835684277089769        0.4687291638514288E-02
     2.841641596999621        0.4375658346374846E-02
     2.847598916909473        0.4073410387363456E-02
     2.853556236819326        0.3780754642419375E-02
     2.859513556729178        0.3497868112758643E-02
     2.865470876639031        0.3224897761853956E-02
     2.871428196548883        0.2961960607666528E-02
     2.877385516458736        0.2709144018287045E-02
     2.883342836368588        0.2466506166259740E-02
     2.889300156278440        0.2234076597462884E-02
     2.895257476188293        0.2011856868809094E-02
     2.901214796098146        0.1799821204143637E-02
     2.907172116007998        0.1597917107588083E-02
     2.913129435917850        0.1406065854716050E-02
     2.919086755827703        0.1224162747692033E-02
     2.925044075737555        0.1052076957639288E-02
     2.931001395647407        0.8896506581770724E-03
     2.936958715557260        0.7366969156069964E-03
     2.942916035467113        0.5929952898780850E-03
     2.948873355376965        0.4582828969323921E-03
     2.954830675286817        0.3322354711493157E-03
     2.960787995196670        0.2144227198332643E-03
     2.966745315106523        0.1041789394840241E-03
     2.972702635016375         0.000000000000000    
  0  4  1  0  2.000000   #orbital l, n, z, is_polarized, population
 500    0.1626063777890868E-01     8.114058251675432     # npts, delta, cutoff
     0.000000000000000        0.3652018177380924    
    0.1626063777890868E-01    0.3654369095432679    
    0.3252127555781736E-01    0.3661615668087458    