<preamble>

<basis_specs>
===============================================================================
Tl                   Z=  81    Mass=  204.38        Charge= 0.17977+309
Lmxo=2 Lmxkb= 3    BasisType=split      Semic=T
L=0  Nsemic=0  Cnfigmx=6
          i=1  nzeta=2  polorb=0  (6s)
            splnorm:   0.15000    
               vcte:    40.000    
               rinn:    5.5726    
               qcoe:    0.0000    
               qyuk:    0.0000    
               qwid:   0.10000E-01
                rcs:    6.1917      4.3516    
            lambdas:    1.0000      1.0000    
L=1  Nsemic=0  Cnfigmx=6
          i=1  nzeta=2  polorb=0  (6p)  (to be polarized non-perturbatively)
            splnorm:   0.15000    
               vcte:    40.000    
               rinn:    8.2928    
               qcoe:    0.0000    
               qyuk:    0.0000    
               qwid:   0.10000E-01
                rcs:    9.2050      6.6948    
            lambdas:    1.0000      1.0000    
L=2  Nsemic=1  Cnfigmx=6
          i=1  nzeta=1  polorb=0  (5d)  (semicore shell)
            splnorm:   0.15000    
               vcte:    40.000    
               rinn:    3.7738    
               qcoe:    0.0000    
               qyuk:    0.0000    
               qwid:   0.10000E-01
                rcs:    4.1889    
            lambdas:    1.0000    
          i=2  nzeta=1  polorb=0  (6d)  (non-perturbative polarization shell)
            splnorm:   0.15000    
               vcte:    40.000    
               rinn:    8.2928    
               qcoe:    0.0000    
               qyuk:    0.0000    
               qwid:   0.10000E-01
                rcs:    9.2050    
            lambdas:    1.0000    
-------------------------------------------------------------------------------
L=0  Nkbl=1  erefs: 0.17977+309
L=1  Nkbl=1  erefs: 0.17977+309
L=2  Nkbl=2  erefs: 0.17977+309 0.17977+309
L=3  Nkbl=1  erefs: 0.17977+309
===============================================================================
</basis_specs>

<pseudopotential_header>
 Tl pb nrl pcec
 ONCVPSP-4.2023-03-20Hamann's oncvpsp                        
 6s 2.00  r= 2.16/6p 1.00  r= 2.66/5d10.00  r= 2.01/5f 0.00  r= 2.11/   5d:6s:6p:
</pseudopotential_header>
</preamble>
Tl                            # Symbol
Tl                            # Label
   81                         # Atomic number
     13.0000000000                             # Valence charge
     204.380000000        # Mass 
     151.278501588        # Self energy 
   2   6                      # Lmax for basis, no. of nl orbitals 
   3   8                      # Lmax for projectors, no. of nl KB projectors
# PAOs:__________________________
  0  6  1  0  2.000000   #orbital l, n, z, is_polarized, population
 500    0.1240829555135697E-01     6.191739480127128     # npts, delta, cutoff
     0.000000000000000        0.3574893025668538E-01
    0.1240829555135697E-01    0.3582441004630411E-01
    0.2481659110271394E-01    0.3605299228133581E-01
    0.3722488665407091E-01    0.3643337127017588E-01
    0.4963318220542788E-01    0.3696466192468066E-01
    0.6204147775678485E-01    0.3764563087854738E-01
    0.7444977330814181E-01    0.3847470191763547E-01
    0.8685806885949879E-01    0.3944996303034132E-01
    0.9926636441085576E-01    0.4056917496267613E-01
    0.1116746599622127        0.4182978122426066E-01
    0.1240829555135697        0.4322891949086274E-01
    0.1364912510649267        0.4476343434314541E-01
    0.1488995466162836        0.4642989127472524E-01
    0.1613078421676406        0.4822459189622430E-01
    0.1737161377189976        0.5014359025591613E-01
    0.1861244332703546        0.5218271019189065E-01
    0.1985327288217115        0.5433756362543433E-01
    0.2109410243730685        0.5660356970057550E-01
    0.2233493199244255        0.5897597467050577E-01
    0.2357576154757824        0.6144987242788286E-01
    0.2481659110271394        0.6402022557287257E-01
    0.2605742065784964        0.6668188691020668E-01
    0.2729825021298534        0.6942962126454900E-01
    0.2853907976812103        0.7225812750206990E-01
    0.2977990932325673        0.7516206064535035E-01
    0.3102073887839242        0.7813605396856199E-01
    0.3226156843352812        0.8117474096031478E-01
    0.3350239798866382        0.8427277704260878E-01
    0.3474322754379952        0.8742486093598226E-01
    0.3598405709893521        0.9062575556318458E-01
    0.3722488665407091        0.9387030838652924E-01
    0.3846571620920661        0.9715347107746132E-01
    0.3970654576434230        0.1004703184207949    
    0.4094737531947800        0.1038160663605243    
    0.4218820487461370        0.1071860890990425    
    0.4342903442974940        0.1105759351670026    
    0.4466986398488509        0.1139813423868926    
    0.4591069354002079        0.1173982516596245    
    0.4715152309515649        0.1208228195100419    
    0.4839235265029219        0.1242514293341724    
    0.4963318220542788        0.1276807012982691    
    0.5087401176056358        0.1311075008471472    
    0.5211484131569928        0.1345289457869880    
    0.5335567087083497        0.1379424119156156    
    0.5459650042597067        0.1413455371812047    
    0.5583732998110637        0.1447362243583926    
    0.5707815953624207        0.1481126422388379    
    0.5831898909137776        0.1514732253412939    
    0.5955981864651345        0.1548166721542573    
    0.6080064820164915        0.1581419419321236    
    0.6204147775678485        0.1614482500735157    
    0.6328230731192055        0.1647350621179933    
    0.6452313686705624        0.1680020864046645    
    0.6576396642219194        0.1712492654432645    
    0.6700479597732764        0.1744767660549985    
    0.6824562553246334        0.1776849683468427    
    0.6948645508759903        0.1808744535890081    
    0.7072728464273473        0.1840459910708666    
    0.7196811419787043        0.1872005240158197    
    0.7320894375300613        0.1903391546402715    
    0.7444977330814182        0.1934631284460713    
    0.7569060286327752        0.1965738178395015    
    0.7693143241841321        0.1996727051730322    
    0.7817226197354892        0.2027613653086801    
    0.7941309152868461        0.2058414478038812    
    0.8065392108382030        0.2089146588222617    
    0.8189475063895600        0.2119827428726111    
    0.8313558019409170        0.2150474644797121    
    0.8437640974922740        0.2181105898904361    
    0.8561723930436309        0.2211738689177128    
    0.8685806885949879        0.2242390170236113    
    0.8809889841463449        0.2273076977408544    
    0.8933972796977019        0.2303815055296110    
    0.9058055752490588        0.2334619491634376    
    0.9182138708004158        0.2365504357347481    
    0.9306221663517728        0.2396482553662009    
    0.9430304619031298        0.2427565667099900    
    0.9554387574544867        0.2458763833121368    
    0.9678470530058437        0.2490085609136436    
    0.9802553485572006        0.2521537857547126    
    0.9926636441085577        0.2553125639422857    
     1.005071939659915        0.2584852119348965    
     1.017480235211272        0.2616718481922828    
     1.029888530762628        0.2648723860304290    
     1.042296826313986        0.2680865277158765    
     1.054705121865342        0.2713137598258593    
     1.067113417416699        0.2745533498938643    
     1.079521712968056        0.2778043443527077    
     1.091930008519413        0.2810655677802198    
     1.104338304070770        0.2843356234451108    
     1.116746599622127        0.2876128951435234    
     1.129154895173484        0.2908955503097445    
     1.141563190724841        0.2941815443773478    
     1.153971486276198        0.2974686263605628    
     1.166379781827555        0.3007543456188929    
     1.178788077378912        0.3040360597616431    
     1.191196372930269        0.3073109436432548    
     1.203604668481626        0.3105759993943270    
     1.216012964032983        0.3138280674280399    
     1.228421259584340        0.3170638383566219    
     1.240829555135697        0.3202798657478709    
     1.253237850687054        0.3234725796477398    
     1.265646146238411        0.3266383007910857    
     1.278054441789768        0.3297732554195804    
     1.290462737341125        0.3328735906228634    
     1.302871032892482        0.3359353901169365    
     1.315279328443839        0.3389546903718434    
     1.327687623995196        0.3419274969994204    
     1.340095919546553        0.3448498013112826    
     1.352504215097910        0.3477175969569689    
     1.364912510649267        0.3505268965520351    
     1.377320806200624        0.3532737482074030    
     1.389729101751981        0.3559542518717789    
     1.402137397303338        0.3585645754012546    
     1.414545692854695        0.3611009702721611    
     1.426953988406052        0.3635597868560790    
     1.439362283957409        0.3659374891788151    
     1.451770579508765        0.3682306690891949    
     1.464178875060123        0.3704360597667435    
     1.476587170611479        0.3725505485023554    
     1.488995466162836        0.3745711886900869    
     1.501403761714193        0.3764952109738620    
     1.513812057265550        0.3783200334972332    
     1.526220352816907        0.3800432712106996    
     1.538628648368264        0.3816627441962940    
     1.551036943919621        0.3831764849751241    
     1.563445239470978        0.3845827447696408    
     1.575853535022335        0.3858799986985682    
     1.588261830573692        0.3870669498885579    
     1.600670126125049        0.3881425324929463    
     1.613078421676406        0.3891059136141635    
     1.625486717227763        0.3899564941326144    
     1.637895012779120        0.3906939084511758    
     1.650303308330477        0.3913180231698231    
     1.662711603881834        0.3918289347117818    
     1.675119899433191        0.3922269659274010    
     1.687528194984548        0.3925126617079046    
     1.699936490535905        0.3926867836464916    
     1.712344786087262        0.3927503037889303    
     1.724753081638619        0.3927043975206696    
     1.737161377189976        0.3925504356422194    
     1.749569672741333        0.3922899756876863    
     1.761977968292690        0.3919247525461645    
     1.774386263844047        0.3914566684479862    
     1.786794559395404        0.3908877823814352    
     1.799202854946761        0.3902202990075599    
     1.811611150498118        0.3894565571430688    
     1.824019446049475        0.3885990178827822    
     1.836427741600832        0.3876502524342914    
     1.848836037152189        0.3866129297383455    
     1.861244332703546        0.3854898039487549    
     1.873652628254902        0.3842837018453152    
     1.886060923806260        0.3829975143178835    
     1.898469219357616        0.3816341765531684    
     1.910877514908973        0.3801966531040402    
     1.923285810460330        0.3786879365807252    
     1.935694106011687        0.3771110307949991    
     1.948102401563044        0.3754689392575332    
     1.960510697114401        0.3737646540848182    
     1.972918992665758        0.3720011453732406    
     1.985327288217115        0.3701813510955116    
     1.997735583768472        0.3683081675679130    
     2.010143879319829        0.3663844405300449    
     2.022552174871186        0.3644129569028059    
     2.034960470422543        0.3623964372725770    
     2.047368765973900        0.3603375289481232    
     2.059777061525257        0.3582388000088032    
     2.072185357076614        0.3561027339625051    
     2.084593652627971        0.3539317252689624    
     2.097001948179328        0.3517280756564326    
     2.109410243730685        0.3494939912584520    
     2.121818539282042        0.3472315805690045    
     2.134226834833399        0.3449428532005693    
     2.146635130384756        0.3426297195544159    
     2.159043425936113        0.3402939908958481    
     2.171451721487470        0.3379373816536969    
     2.183860017038827        0.3355615249863552    
     2.196268312590184        0.3331679914240172    
     2.208676608141541        0.3307582943859410    
     2.221084903692898        0.3283338912129299    
     2.233493199244255        0.3258961851056340    
     2.245901494795612        0.3234465267994778    
     2.258309790346968        0.3209862162156453    
     2.270718085898325        0.3185165040672969    
     2.283126381449683        0.3160385934201980    
     2.295534677001040        0.3135536412093442    
     2.307942972552397        0.3110627597124656    
     2.320351268103753        0.3085670179810142    
     2.332759563655110        0.3060674432298841    
     2.345167859206467        0.3035650221867222    
     2.357576154757824        0.3010607024016192    
     2.369984450309181        0.2985553935182774    
     2.382392745860538        0.2960499685075651    
     2.394801041411895        0.2935452648643223    
     2.407209336963252        0.2910420857683641    
     2.419617632514609        0.2885412012106540    
     2.432025928065966        0.2860433490855144    
     2.444434223617323        0.2835492362497289    
     2.456842519168680        0.2810595395494696    
     2.469250814720037        0.2785749068159080    
     2.481659110271394        0.2760959578303583    
     2.494067405822751        0.2736232852597957    
     2.506475701374108        0.2711574555635700    
     2.518883996925465        0.2686990098721407    
     2.531292292476822        0.2662484648385751    
     2.543700588028179        0.2638063134636794    
     2.556108883579536        0.2613730258954218    
     2.568517179130893        0.2589490502034261    
     2.580925474682250        0.2565348131293599    
     2.593333770233607        0.2541307208137093    
     2.605742065784964        0.2517371594998352    
     2.618150361336321        0.2493544962159116    
     2.630558656887678        0.2469830794353497    
     2.642966952439035        0.2446232397164686    
     2.655375247990392        0.2422752903226624    
     2.667783543541749        0.2399395278207891    
     2.680191839093105        0.2376162326627410    
     2.692600134644462        0.2353056697452249    
     2.705008430195820        0.2330080889611898    
     2.717416725747177        0.2307237257217775    
     2.729825021298534        0.2284528014679604    
     2.742233316849890        0.2261955241632003    
     2.754641612401247        0.2239520887749910    
     2.767049907952604        0.2217226777355785    
     2.779458203503961        0.2195074613912331    
     2.791866499055318        0.2173065984360738    
     2.804274794606675        0.2151202363320984    
     2.816683090158032        0.2129485117157580    
     2.829091385709389        0.2107915507914777    
     2.841499681260746        0.2086494697125232    
     2.853907976812103        0.2065223749495894    
     2.866316272363460        0.2044103636475151    
     2.878724567914817        0.2023135239704922    
     2.891132863466174        0.2002319354361295    
     2.903541159017531        0.1981656692387198    
     2.915949454568888        0.1961147885620249    
     2.928357750120245        0.1940793488819423    
     2.940766045671602        0.1920593982593614    
     2.953174341222959        0.1900549776234995    
     2.965582636774316        0.1880661210460308    
     2.977990932325673        0.1860928560062919    
     2.990399227877030        0.1841352036478534    
     3.002807523428387        0.1821931790267121    
     3.015215818979744        0.1802667913513825    
     3.027624114531101        0.1783560442151498    
     3.040032410082458        0.1764609358206938    
     3.052440705633815        0.1745814591973638    
     3.064849001185172        0.1727176024113142    
     3.077257296736529        0.1708693487687346    
     3.089665592287886        0.1690366770123878    
     3.102073887839242        0.1672195615116731    
     3.114482183390599        0.1654179724463906    
     3.126890478941957        0.1636318759844513    
     3.139298774493314        0.1618612344536937    
     3.151707070044671        0.1601060065079881    
     3.164115365596027        0.1583661472878256    
     3.176523661147384        0.1566416085755623    
     3.188931956698741        0.1549323389454658    
     3.201340252250098        0.1532382839087635    
     3.213748547801455        0.1515593860538293    
     3.226156843352812        0.1498955851816507    
     3.238565138904169        0.1482468184367444    
     3.250973434455526        0.1466130204336614    
     3.263381730006883        0.1449941233792146    
     3.275790025558240        0.1433900571905621    
     3.288198321109597        0.1418007496092738    
     3.300606616660954        0.1402261263115293    
     3.313014912212311        0.1386661110145475    
     3.325423207763668        0.1371206255793578    
     3.337831503315025        0.1355895901100582    
     3.350239798866382        0.1340729230496573    
     3.362648094417739        0.1325705412725922    
     3.375056389969096        0.1310823601740488    
     3.387464685520453        0.1296082937561755    
     3.399872981071810        0.1281482547112900    
     3.412281276623167        0.1267021545021716    
     3.424689572174524        0.1252699034395345    
     3.437097867725881        0.1238514107567681    
     3.449506163277238        0.1224465846820292    
     3.461914458828595        0.1210553325077745    
     3.474322754379952        0.1196775606578109    
     3.486731049931309        0.1183131747519449    
     3.499139345482666        0.1169620796682975    
     3.511547641034023        0.1156241796033682    
     3.523955936585379        0.1142993781299202    
     3.536364232136736        0.1129875782527505    
     3.548772527688094        0.1116886824624066    
     3.561180823239451        0.1104025927869260    
     3.573589118790808        0.1091292108416595    
     3.585997414342164        0.1078684378772282    
     3.598405709893521        0.1066201748256875    
     3.610814005444878        0.1053843223449440    
     3.623222300996235        0.1041607808614874    
     3.635630596547592        0.1029494506114900    
     3.648038892098949        0.1017502316803200    
     3.660447187650306        0.1005630240405292    
     3.672855483201663        0.9938772758835403E-01
     3.685263778753020        0.9822424217878679E-01
     3.697672074304377        0.9707246765925005E-01
     3.710080369855734        0.9593230390193173E-01
     3.722488665407091        0.9480365083481887E-01
     3.734896960958448        0.9368640847146972E-01
     3.747305256509805        0.9258047693956654E-01
     3.759713552061162        0.9148575650828825E-01
     3.772121847612519        0.9040214761454372E-01
     3.784530143163876        0.8932955088809533E-01
     3.796938438715233        0.8826786717561708E-01
     3.809346734266590        0.8721699756371622E-01
     3.821755029817947        0.8617684340095498E-01
     3.834163325369304        0.8514730631890234E-01
     3.846571620920661        0.8412828825224956E-01
     3.858979916472018        0.8311969145802019E-01
     3.871388212023375        0.8212141853390138E-01
     3.883796507574732        0.8113337243572992E-01
     3.896204803126089        0.8015545649415651E-01
     3.908613098677446        0.7918757443051781E-01
     3.921021394228803        0.7822963037194197E-01
     3.933429689780159        0.7728152886571282E-01
     3.945837985331516        0.7634317489291695E-01
     3.958246280882873        0.7541447388139914E-01
     3.970654576434231        0.7449533171804697E-01
     3.983062871985588        0.7358565476043000E-01
     3.995471167536945        0.7268534984781198E-01
     4.007879463088301        0.7179432431155998E-01
     4.020287758639658        0.7091248598496953E-01
     4.032696054191016        0.7003974321252583E-01
     4.045104349742372        0.6917600485862126E-01
     4.057512645293730        0.6832118031574415E-01
     4.069920940845086        0.6747517951216345E-01
     4.082329236396443        0.6663791291912013E-01
     4.094737531947800        0.6580929155754696E-01
     4.107145827499157        0.6498922700432988E-01
     4.119554123050514        0.6417763139812989E-01
     4.131962418601871        0.6337441744477842E-01
     4.144370714153228        0.6257949842226265E-01
     4.156779009704585        0.6179278818531479E-01
     4.169187305255942        0.6101420116961948E-01
     4.181595600807299        0.6024365239565307E-01
     4.194003896358656        0.5948105747216829E-01
     4.206412191910013        0.5872633259933557E-01
     4.218820487461370        0.5797939457155353E-01
     4.231228783012726        0.5724016077995595E-01
     4.243637078564084        0.5650854921463245E-01
     4.256045374115441        0.5578447846629338E-01
     4.268453669666798        0.5506786772838936E-01
     4.280861965218155        0.5435863679791448E-01
     4.293270260769511        0.5365670607568161E-01
     4.305678556320869        0.5296199657233434E-01
     4.318086851872225        0.5227442990402209E-01
     4.330495147423583        0.5159392828117673E-01
     4.342903442974940        0.5092041452501282E-01
     4.355311738526296        0.5025381208570889E-01
     4.367720034077654        0.4959404501039628E-01
     4.380128329629010        0.4894103792542066E-01
     4.392536625180368        0.4829471608663441E-01
     4.404944920731724        0.4765500535105339E-01
     4.417353216283082        0.4702183217662851E-01
     4.429761511834438        0.4639512362342083E-01
     4.442169807385795        0.4577480735195649E-01
     4.454578102937153        0.4516081162184554E-01
     4.466986398488509        0.4455306529014092E-01
     4.479394694039867        0.4395149780936972E-01
     4.491802989591223        0.4335603922556131E-01
     4.504211285142580        0.4276662017617505E-01
     4.516619580693937        0.4218317188788045E-01
     4.529027876245294        0.4160562617421391E-01
     4.541436171796651        0.4103391543312465E-01
     4.553844467348008        0.4046797264441164E-01
     4.566252762899365        0.3990773136705802E-01
     4.578661058450722        0.3935312573646677E-01
     4.591069354002079        0.3880409046160223E-01
     4.603477649553436        0.3826056082204327E-01
     4.615885945104793        0.3772247266495014E-01
     4.628294240656150        0.3718976240195255E-01
     4.640702536207507        0.3666236700596082E-01
     4.653110831758863        0.3614022400790474E-01
     4.665519127310221        0.3562327149340236E-01
     4.677927422861578        0.3511144809936626E-01
     4.690335718412935        0.3460469301054605E-01
     4.702744013964292        0.3410294595601480E-01
     4.715152309515648        0.3360614720560066E-01
     4.727560605067006        0.3311423756626566E-01
     4.739968900618362        0.3262715837843825E-01
     4.752377196169720        0.3214485151229959E-01
     4.764785491721076        0.3166725936402755E-01
     4.777193787272433        0.3119432485200087E-01
     4.789602082823791        0.3072599141296722E-01
     4.802010378375147        0.3026220299817644E-01
     4.814418673926505        0.2980290406948224E-01
     4.826826969477861        0.2934803959541479E-01
     4.839235265029219        0.2889755504722531E-01
     4.851643560580575        0.2845139639490731E-01
     4.864051856131932        0.2800951010319363E-01
     4.876460151683290        0.2757184312753424E-01
     4.888868447234646        0.2713834291005491E-01
     4.901276742786004        0.2670895737549910E-01
     4.913685038337360        0.2628363492715572E-01
     4.926093333888717        0.2586232444277282E-01
     4.938501629440074        0.2544497527046094E-01
     4.950909924991431        0.2503153722458666E-01
     4.963318220542788        0.2462196058165770E-01
     4.975726516094145        0.2421619607620155E-01
     4.988134811645502        0.2381419489663993E-01
     5.000543107196859        0.2341590868115795E-01
     5.012951402748216        0.2302128951357250E-01
     5.025359698299573        0.2263028991919908E-01
     5.037767993850930        0.2224286286071797E-01
     5.050176289402287        0.2185896173404343E-01
     5.062584584953644        0.2147854036419389E-01
     5.074992880505000        0.2110155300116665E-01
     5.087401176056358        0.2072795431581707E-01
     5.099809471607715        0.2035769939574352E-01
     5.112217767159072        0.1999074374117894E-01
     5.124626062710429        0.1962704326088950E-01
     5.137034358261785        0.1926655426808178E-01
     5.149442653813143        0.1890923347632002E-01
     5.161850949364499        0.1855503799545227E-01
     5.174259244915857        0.1820392532754809E-01
     5.186667540467213        0.1785585336284774E-01
     5.199075836018570        0.1751078037572255E-01
     5.211484131569928        0.1716866502064946E-01
     5.223892427121284        0.1682946632819858E-01
     5.236300722672642        0.1649314370103435E-01
     5.248709018223998        0.1615965690993209E-01
     5.261117313775356        0.1582896608980846E-01
     5.273525609326712        0.1550103173576956E-01
     5.285933904878069        0.1517581469917289E-01
     5.298342200429427        0.1485327618370776E-01
     5.310750495980783        0.1453337774149130E-01
     5.323158791532141        0.1421608126918267E-01
     5.335567087083497        0.1390134900411482E-01
     5.347975382634854        0.1358914352044409E-01
     5.360383678186211        0.1327942772531877E-01
     5.372791973737568        0.1297216485506563E-01
     5.385200269288925        0.1266731847139667E-01
     5.397608564840282        0.1236485245763362E-01
     5.410016860391639        0.1206473101495333E-01
     5.422425155942996        0.1176691865865212E-01
     5.434833451494353        0.1147138021443040E-01
     5.447241747045710        0.1117808081469739E-01
     5.459650042597067        0.1088698589489569E-01
     5.472058338148424        0.1059806118984785E-01
     5.484466633699781        0.1031127273012129E-01
     5.496874929251137        0.1002658683841625E-01
     5.509283224802495        0.9743970125972881E-02
     5.521691520353852        0.9463389489000520E-02
     5.534099815905209        0.9184812105127159E-02
     5.546508111456566        0.8908205429870249E-02
     5.558916407007922        0.8633537193129348E-02
     5.571324702559280        0.8360775395698997E-02
     5.583732998110636        0.8089888305803596E-02
     5.596141293661994        0.7820844455652913E-02
     5.608549589213350        0.7553612638090062E-02
     5.620957884764707        0.7288161916989186E-02
     5.633366180316065        0.7024461982119803E-02
     5.645774475867421        0.6762485758866751E-02
     5.658182771418779        0.6502217479802203E-02
     5.670591066970135        0.6243666480745065E-02
     5.682999362521493        0.5986882739824612E-02
     5.695407658072849        0.5731969452107927E-02
     5.707815953624206        0.5479089975707183E-02
     5.720224249175564        0.5228468757024813E-02
     5.732632544726920        0.4980387212112755E-02
     5.745040840278278        0.4735176032833891E-02
     5.757449135829634        0.4493205353806186E-02
     5.769857431380991        0.4254873958413190E-02
     5.782265726932348        0.4020598394132859E-02
     5.794674022483705        0.3790802589188471E-02
     5.807082318035062        0.3565908340494276E-02
     5.819490613586419        0.3346326878105470E-02
     5.831898909137776        0.3132451595203321E-02
     5.844307204689133        0.2924651954182951E-02
     5.856715500240490        0.2723268528747116E-02
     5.869123795791847        0.2528609111002809E-02
     5.881532091343204        0.2340945795334172E-02
     5.893940386894561        0.2160512942840163E-02
     5.906348682445918        0.1987505928230146E-02
     5.918756977997274        0.1822080573052884E-02
     5.931165273548632        0.1664353173482452E-02
     5.943573569099989        0.1514401036554620E-02
     5.955981864651346        0.1372263445036844E-02
     5.968390160202703        0.1237942977535855E-02
     5.980798455754059        0.1111407116663461E-02
     5.993206751305417        0.9925900838208242E-03
     6.005615046856773        0.8813948441941105E-03
     6.018023342408131        0.7776952296077586E-03
     6.030431637959487        0.6813381295685591E-03
     6.042839933510844        0.5921457009419701E-03
     6.055248229062202        0.5099175453185330E-03
     6.067656524613558        0.4344327939056436E-03
     6.080064820164916        0.3654520228420454E-03
     6.092473115716272        0.3027188858315540E-03
     6.104881411267630        0.2459612773507194E-03
     6.117289706818986        0.1948916824479499E-03
     6.129698002370343        0.1492060084477715E-03
     6.142106297921701        0.1085792761514556E-03
     6.154514593473057        0.7265384356032220E-04
     6.166922889024415        0.4100633794127200E-04
     6.179331184575771        0.1302355200384589E-04
     6.191739480127128         0.000000000000000    
  0  6  2  0  0.000000   #orbital l, n, z, is_polarized, population
 500    0.8720561318736067E-02     4.351560098049298     # npts, delta, cutoff
     0.000000000000000       -0.2606825749165856    
    0.8720561318736067E-02   -0.2606084265702261    
    0.1744112263747213E-01   -0.2603814639914416    
    0.2616168395620820E-01   -0.2600034786969131    
    0.3488224527494427E-01   -0.2594749007209881    
    0.4360280659368033E-01   -0.2587963302471576    
    0.5232336791241640E-01   -0.2579685365703124    
    0.6104392923115247E-01   -0.2569924564327127    
    0.6976449054988854E-01   -0.2558691919584872    