<preamble>

<basis_specs>
===============================================================================
Xe                   Z=  54    Mass=  131.29        Charge= 0.17977+309
Lmxo=2 Lmxkb= 3    BasisType=split      Semic=F
L=0  Nsemic=0  Cnfigmx=5
          i=1  nzeta=2  polorb=0  (5s)
            splnorm:   0.15000    
               vcte:    40.000    
               rinn:    4.2947    
               qcoe:    0.0000    
               qyuk:    0.0000    
               qwid:   0.10000E-01
                rcs:    4.7719      3.2667    
            lambdas:    1.0000      1.0000    
L=1  Nsemic=0  Cnfigmx=5
          i=1  nzeta=2  polorb=1  (5p)  (to be polarized perturbatively)
            splnorm:   0.15000    
               vcte:    40.000    
               rinn:    5.3914    
               qcoe:    0.0000    
               qyuk:    0.0000    
               qwid:   0.10000E-01
                rcs:    5.9844      4.1513    
            lambdas:    1.0000      1.0000    
L=2  Nsemic=0  Cnfigmx=5
          i=1  nzeta=0  polorb=0  (5d)  (perturbative polarization orbital) (from 5p)
-------------------------------------------------------------------------------
L=0  Nkbl=1  erefs: 0.17977+309
L=1  Nkbl=1  erefs: 0.17977+309
L=2  Nkbl=1  erefs: 0.17977+309
L=3  Nkbl=1  erefs: 0.17977+309
===============================================================================
</basis_specs>

<pseudopotential_header>
 Xe pb nrl pcec
 ONCVPSP-4.2023-03-20Hamann's oncvpsp                        
 5s 2.00  r= 2.01/5p 6.00  r= 1.80/5d 0.00  r= 2.01/4f 0.00  r= 2.01/   5s:5p:
</pseudopotential_header>
</preamble>
Xe                            # Symbol
Xe                            # Label
   54                         # Atomic number
     8.00000000000                             # Valence charge
     131.290000000        # Mass 
     58.3709607581        # Self energy 
   2   5                      # Lmax for basis, no. of nl orbitals 
   3   8                      # Lmax for projectors, no. of nl KB projectors
# PAOs:__________________________
  0  5  1  0  2.000000   #orbital l, n, z, is_polarized, population
 500    0.9562847817420058E-02     4.771861060892609     # npts, delta, cutoff
     0.000000000000000        0.7204538068356600E-01
    0.9562847817420058E-02    0.7212610271001520E-01
    0.1912569563484012E-01    0.7237105414975639E-01
    0.2868854345226017E-01    0.7277900112503707E-01
    0.3825139126968023E-01    0.7334948502314377E-01
    0.4781423908710029E-01    0.7408186563687225E-01
    0.5737708690452035E-01    0.7497532253983480E-01
    0.6693993472194040E-01    0.7602885703681726E-01
    0.7650278253936046E-01    0.7724129455674049E-01
    0.8606563035678053E-01    0.7861128746593585E-01
    0.9562847817420059E-01    0.8013731828917636E-01
    0.1051913259916206        0.8181770332654961E-01
    0.1147541738090407        0.8365059665341688E-01
    0.1243170216264608        0.8563399448957659E-01
    0.1338798694438808        0.8776573992255988E-01
    0.1434427172613009        0.9004352796883518E-01
    0.1530055650787209        0.9246491095558773E-01
    0.1625684128961410        0.9502730420469595E-01
    0.1721312607135611        0.9772799199954618E-01
    0.1816941085309811        0.1005641338144177    
    0.1912569563484012        0.1035327707853411    
    0.2008198041658212        0.1066308324005758    
    0.2103826519832413        0.1098551433881803    
    0.2199454998006613        0.1132024307775648    
    0.2295083476180814        0.1166693311114086    
    0.2390711954355015        0.1202523977839168    
    0.2486340432529215        0.1239481084810613    
    0.2581968910703415        0.1277528726982316    
    0.2677597388877616        0.1316630393105622    
    0.2773225867051817        0.1356749041711799    
    0.2868854345226017        0.1397847177126385    
    0.2964482823400218        0.1439886925269638    
    0.3060111301574419        0.1482830108999494    
    0.3155739779748619        0.1526638322756774    
    0.3251368257922820        0.1571273006276343    
    0.3346996736097020        0.1616695517133072    
    0.3442625214271221        0.1662867201897154    
    0.3538253692445422        0.1709749465680031    
    0.3633882170619622        0.1757303839859758    
    0.3729510648793823        0.1805492047782743    
    0.3825139126968023        0.1854276068247808    
    0.3920767605142224        0.1903618196588356    
    0.4016396083316424        0.1953481103178516    
    0.4112024561490625        0.2003827889200342    
    0.4207653039664825        0.2054622139520559    
    0.4303281517839026        0.2105827972537432    
    0.4398909996013227        0.2157410086870946    
    0.4494538474187427        0.2209333804782363    
    0.4590166952361628        0.2261565112222716    
    0.4685795430535828        0.2314070695423305    
    0.4781423908710029        0.2366817973955432    
    0.4877052386884230        0.2419775130200549    
    0.4972680865058430        0.2472911135186468    
    0.5068309343232631        0.2526195770759666    
    0.5163937821406831        0.2579599648078165    
    0.5259566299581032        0.2633094222423895    
    0.5355194777755232        0.2686651804347941    
    0.5450823255929433        0.2740245567176171    
    0.5546451734103633        0.2793849550916955    
    0.5642080212277835        0.2847438662626416    
    0.5737708690452035        0.2900988673300274    
    0.5833337168626236        0.2954476211374462    
    0.5928965646800436        0.3007878752929584    
    0.6024594124974637        0.3061174608706544    
    0.6120222603148837        0.3114342908052650    
    0.6215851081323037        0.3167363579928659    
    0.6311479559497238        0.3220217331118190    
    0.6407108037671438        0.3272885621790872    
    0.6502736515845640        0.3325350638580021    
    0.6598364994019840        0.3377595265344765    
    0.6693993472194041        0.3429603051793964    
    0.6789621950368241        0.3481358180157202    
    0.6885250428542442        0.3532845430094057    
    0.6980878906716642        0.3584050142039003    
    0.7076507384890843        0.3634958179183740    
    0.7172135863065043        0.3685555888303168    
    0.7267764341239245        0.3735830059633984    
    0.7363392819413445        0.3785767886017478    
    0.7459021297587646        0.3835356921519342    
    0.7554649775761846        0.3884585039739901    
    0.7650278253936047        0.3933440392027790    
    0.7745906732110247        0.3981911365809015    
    0.7841535210284447        0.4029986543241088    
    0.7937163688458648        0.4077654660399081    
    0.8032792166632848        0.4124904567196832    
    0.8128420644807050        0.4171725188241539    
    0.8224049122981250        0.4218105484815142    
    0.8319677601155451        0.4264034418169291    
    0.8415306079329651        0.4309500914313949    
    0.8510934557503852        0.4354493830472272    
    0.8606563035678052        0.4399001923365635    
    0.8702191513852253        0.4443013819484254    
    0.8797819992026453        0.4486517987488814    
    0.8893448470200654        0.4529502712878932    
    0.8989076948374854        0.4571956075052978    
    0.9084705426549056        0.4613865926873276    
    0.9180333904723256        0.4655219876838735    
    0.9275962382897456        0.4696005273955135    
    0.9371590861071657        0.4736209195381170    
    0.9467219339245857        0.4775818436915441    
    0.9562847817420058        0.4814819506377130    
    0.9658476295594258        0.4853198619919988    
    0.9754104773768459        0.4890941701306029    
    0.9849733251942659        0.4928034384152338    
    0.9945361730116861        0.4964462017151270    
     1.004099020829106        0.5000209672250728    
     1.013661868646526        0.5035262155768681    
     1.023224716463946        0.5069604022403014    
     1.032787564281366        0.5103219592084628    
     1.042350412098786        0.5136092969609439    
     1.051913259916206        0.5168208066974126    
     1.061476107733627        0.5199548628325110    
     1.071038955551046        0.5230098257423342    
     1.080601803368467        0.5259840447512681    
     1.090164651185887        0.5288758613471017    
     1.099727499003307        0.5316836126113145    
     1.109290346820727        0.5344056348503873    
     1.118853194638147        0.5370402674133155    
     1.128416042455567        0.5395858566793272    
     1.137978890272987        0.5420407601995706    
     1.147541738090407        0.5444033509751727    
     1.157104585907827        0.5466720218542472    
     1.166667433725247        0.5488451900290956    
     1.176230281542667        0.5509213016150711    
     1.185793129360087        0.5528988362916673    
     1.195355977177507        0.5547763119864300    
     1.204918824994927        0.5565522895819049    
     1.214481672812347        0.5582253776257114    
     1.224044520629767        0.5597942370238521    
     1.233607368447188        0.5612575856971828    
     1.243170216264607        0.5626142031814234    
     1.252733064082028        0.5638629351508713    
     1.262295911899448        0.5650026978465326    
     1.271858759716868        0.5660324823896208    
     1.281421607534288        0.5669513589617367    
     1.290984455351708        0.5677584808336688    
     1.300547303169128        0.5684530882252792    
     1.310110150986548        0.5690345119794193    
     1.319672998803968        0.5695021770337522    
     1.329235846621388        0.5698556056750772    
     1.338798694438808        0.5700944205614604    
     1.348361542256228        0.5702183474984236    
     1.357924390073648        0.5702272179565251    
     1.367487237891068        0.5701209713184754    
     1.377050085708488        0.5698996568450444    
     1.386612933525908        0.5695634353501575    
     1.396175781343328        0.5691125805765564    
     1.405738629160749        0.5685474802648119    
     1.415301476978169        0.5678686369092394    
     1.424864324795589        0.5670766681960318    
     1.434427172613009        0.5661723071195712    
     1.443990020430429        0.5651564017746546    
     1.453552868247849        0.5640299148231164    
     1.463115716065269        0.5627939226350457    
     1.472678563882689        0.5614496141056204    
     1.482241411700109        0.5599982891502734    
     1.491804259517529        0.5584413568816678    
     1.501367107334949        0.5567803334735476    
     1.510929955152369        0.5550168398300851    
     1.520492802969789        0.5531525988501003    
     1.530055650787209        0.5511894316928140    
     1.539618498604629        0.5491292553875632    
     1.549181346422049        0.5469740789037240    
     1.558744194239470        0.5447259993012862    
     1.568307042056889        0.5423871976372284    
     1.577869889874310        0.5399599346383503    
     1.587432737691730        0.5374465461550757    
     1.596995585509150        0.5348494384115235    
     1.606558433326570        0.5321710830676798    
     1.616121281143990        0.5294140121103937    
     1.625684128961410        0.5265808125903699    
     1.635246976778830        0.5236741212231968    
     1.644809824596250        0.5206966188724522    
     1.654372672413670        0.5176510249338313    
     1.663935520231090        0.5145400916392047    
     1.673498368048510        0.5113665983000367    
     1.683061215865930        0.5081333455095834    
     1.692624063683350        0.5048431493235318    
     1.702186911500770        0.5014988354388208    
     1.711749759318190        0.4981032333900973    
     1.721312607135610        0.4946591707833677    
     1.730875454953031        0.4911694675861972    
     1.740438302770451        0.4876369304936493    
     1.750001150587871        0.4840643473884297    
     1.759563998405291        0.4804544819132670    
     1.769126846222711        0.4768100681741663    
     1.778689694040131        0.4731338055918296    
     1.788252541857551        0.4694283539150784    
     1.797815389674971        0.4656963284102162    
     1.807378237492391        0.4619402952642824    
     1.816941085309811        0.4581627671953618    
     1.826503933127231        0.4543661992756818    
     1.836066780944651        0.4505529849455188    
     1.845629628762071        0.4467254523562062    
     1.855192476579491        0.4428858609780054    
     1.864755324396911        0.4390363983787163    
     1.874318172214331        0.4351791773725648    
     1.883881020031752        0.4313162334137073    
     1.893443867849171        0.4274495222910427    
     1.903006715666592        0.4235809181207871    
     1.912569563484012        0.4197122116406969    
     1.922132411301432        0.4158451088099941    
     1.931695259118852        0.4119812297167383    
     1.941258106936272        0.4081221077936356    
     1.950820954753692        0.4042691893422346    
     1.960383802571112        0.4004238333640346    
     1.969946650388532        0.3965873116959146    
     1.979509498205952        0.3927608094360450    
     1.989072346023372        0.3889454256791523    
     1.998635193840792        0.3851421748516310    
     2.008198041658212        0.3813519865897277    
     2.017760889475632        0.3775757114552403    
     2.027323737293052        0.3738141401651247    
     2.036886585110472        0.3700680240653871    
     2.046449432927893        0.3663380810132502    
     2.056012280745312        0.3626249943965443    
     2.065575128562732        0.3589294145898925    
     2.075137976380153        0.3552519600290930    
     2.084700824197573        0.3515932181925777    
     2.094263672014993        0.3479537465896342    
     2.103826519832413        0.3443340737198461    
     2.113389367649833        0.3407347000069583    
     2.122952215467253        0.3371560987084553    
     2.132515063284673        0.3335987168009473    
     2.142077911102093        0.3300629758419637    
     2.151640758919513        0.3265492728086042    
     2.161203606736933        0.3230579809135518    
     2.170766454554353        0.3195894503989719    
     2.180329302371773        0.3161440093087662    
     2.189892150189193        0.3127219642396372    
     2.199454998006613        0.3093236010714326    
     2.209017845824033        0.3059491856772954    
     2.218580693641453        0.3025989646140378    
     2.228143541458874        0.2992731657931036    
     2.237706389276294        0.2959719991327551    
     2.247269237093714        0.2926956571917915    
     2.256832084911134        0.2894443157852061    
     2.266394932728554        0.2862181345823275    
     2.275957780545974        0.2830172576877664    
     2.285520628363394        0.2798418142056060    
     2.295083476180814        0.2766919187872705    
     2.304646323998234        0.2735676721634090    
     2.314209171815654        0.2704691616602362    
     2.323772019633074        0.2673964617007019    
     2.333334867450494        0.2643496342908352    
     2.342897715267914        0.2613287294916855    
     2.352460563085334        0.2583337858772115    
     2.362023410902754        0.2553648309783809    
     2.371586258720174        0.2524218817139587    
     2.381149106537594        0.2495049448082964    
     2.390711954355015        0.2466140171963817    
     2.400274802172435        0.2437490864165379    
     2.409837649989855        0.2409101309910808    
     2.419400497807275        0.2380971207952906    
     2.428963345624695        0.2353100174149222    
     2.438526193442115        0.2325487744925995    
     2.448089041259535        0.2298133380634073    
     2.457651889076955        0.2271036468799514    
     2.467214736894375        0.2244196327271665    
     2.476777584711795        0.2217612207271424    
     2.486340432529215        0.2191283296342519    
     2.495903280346635        0.2165208721208403    
     2.505466128164055        0.2139387550537282    
     2.515028975981475        0.2113818797617882    
     2.524591823798895        0.2088501422948635    
     2.534154671616315        0.2063434336742019    
     2.543717519433736        0.2038616401347039    
     2.553280367251156        0.2014046433591993    
     2.562843215068575        0.1989723207049727    
     2.572406062885995        0.1965645454227504    
     2.581968910703416        0.1941811868683513    
     2.591531758520836        0.1918221107072456    
     2.601094606338256        0.1894871791122052    
     2.610657454155676        0.1871762509542438    
     2.620220301973096        0.1848891819870382    
     2.629783149790516        0.1826258250250092    
     2.639345997607936        0.1803860301152738    
     2.648908845425356        0.1781696447036363    
     2.658471693242776        0.1759765137947869    
     2.668034541060196        0.1738064801068842    
     2.677597388877616        0.1716593842206622    
     2.687160236695036        0.1695350647232804    
     2.696723084512457        0.1674333583470412    
     2.706285932329876        0.1653541001030936    
     2.715848780147296        0.1632971234103243    
     2.725411627964716        0.1612622602195906    
     2.734974475782137        0.1592493411333868    
     2.744537323599557        0.1572581955210972    
     2.754100171416977        0.1552886516300051    
     2.763663019234397        0.1533405366921533    
     2.773225867051817        0.1514136770271875    
     2.782788714869237        0.1495078981413206    
     2.792351562686657        0.1476230248225393    
     2.801914410504077        0.1457588812321445    
     2.811477258321497        0.1439152909927608    
     2.821040106138917        0.1420920772729347    
     2.830602953956337        0.1402890628684086    
     2.840165801773757        0.1385060702801788    
     2.849728649591177        0.1367429217894537    
     2.859291497408597        0.1349994395296026    
     2.868854345226017        0.1332754455551878    
     2.878417193043437        0.1315707619081786    
     2.887980040860858        0.1298852106814371    
     2.897542888678278        0.1282186140795622    
     2.907105736495698        0.1265707944771877    
     2.916668584313117        0.1249415744748024    
     2.926231432130538        0.1233307769521807    
     2.935794279947958        0.1217382251195081    
     2.945357127765378        0.1201637425662747    
     2.954919975582798        0.1186071533080013    
     2.964482823400218        0.1170682818308755    
     2.974045671217638        0.1155469531343835    
     2.983608519035058        0.1140429927719854    
     2.993171366852478        0.1125562268899033    
     3.002734214669898        0.1110864822640888    
     3.012297062487318        0.1096335863354408    
     3.021859910304738        0.1081973672433194    
     3.031422758122158        0.1067776538574187    
     3.040985605939579        0.1053742758080578    
     3.050548453756999        0.1039870635149467    
     3.060111301574419        0.1026158482144737    
     3.069674149391838        0.1012604619855709    
     3.079236997209259        0.9992073777420422E-01
     3.088799845026679        0.9859650941653623E-01
     3.098362692844099        0.9728761166081470E-01
     3.107925540661519        0.9599388018802399E-01
     3.117488388478939        0.9471515163134978E-01
     3.127051236296359        0.9345126359449600E-01
     3.136614084113779        0.9220205466889482E-01
     3.146176931931199        0.9096736444985026E-01
     3.155739779748619        0.8974703355165710E-01
     3.165302627566039        0.8854090362173050E-01
     3.174865475383459        0.8734881735377814E-01
     3.184428323200879        0.8617061850005293E-01
     3.193991171018300        0.8500615188272524E-01
     3.203554018835720        0.8385526340440126E-01
     3.213116866653139        0.8271780005781908E-01
     3.222679714470559        0.8159360993475419E-01
     3.232242562287980        0.8048254223416651E-01
     3.241805410105400        0.7938444726961552E-01
     3.251368257922820        0.7829917647596793E-01
     3.260931105740240        0.7722658241543154E-01
     3.270493953557660        0.7616651878293403E-01
     3.280056801375080        0.7511884041087626E-01
     3.289619649192500        0.7408340327328279E-01
     3.299182497009920        0.7306006448937312E-01
     3.308745344827340        0.7204868232657399E-01
     3.318308192644760        0.7104911620299849E-01
     3.327871040462180        0.7006122668940784E-01
     3.337433888279600        0.6908487551068129E-01
     3.346996736097021        0.6811992554681091E-01
     3.356559583914440        0.6716624083343878E-01
     3.366122431731860        0.6622368656195828E-01
     3.375685279549280        0.6529212907919441E-01
     3.385248127366701        0.6437143588668087E-01
     3.394810975184121        0.6346147563955012E-01
     3.404373823001541        0.6256211814505278E-01
     3.413936670818961        0.6167323436072118E-01
     3.423499518636381        0.6079469639219128E-01
     3.433062366453801        0.5992637749069813E-01
     3.442625214271221        0.5906815205025778E-01
     3.452188062088641        0.5821989560454952E-01
     3.461750909906061        0.5738148482351021E-01
     3.471313757723481        0.5655279750965377E-01
     3.480876605540901        0.5573371259412885E-01
     3.490439453358321        0.5492411013252162E-01
     3.500002301175741        0.5412387130042146E-01
     3.509565148993161        0.5333287838875493E-01
     3.519127996810581        0.5255101479889942E-01
     3.528690844628001        0.5177816503758803E-01
     3.538253692445422        0.5101421471161434E-01
     3.547816540262842        0.5025905052234482E-01
     3.557379388080262        0.4951256026005012E-01
     3.566942235897681        0.4877463279806418E-01
     3.576505083715102        0.4804515808677463E-01
     3.586067931532522        0.4732402714745904E-01
     3.595630779349942        0.4661113206597092E-01
     3.605193627167362        0.4590636598628239E-01
     3.614756474984782        0.4520962310389386E-01
     3.624319322802202        0.4452079865911455E-01
     3.633882170619622        0.4383978893022228E-01
     3.643445018437042        0.4316649122650887E-01
     3.653007866254462        0.4250080388121594E-01
     3.662570714071882        0.4184262624436912E-01
     3.672133561889302        0.4119185867551564E-01
     3.681696409706722        0.4054840253636992E-01
     3.691259257524143        0.3991216018337492E-01
     3.700822105341563        0.3928303496018317E-01
     3.710384953158982        0.3866093119006002E-01
     3.719947800976402        0.3804575416821886E-01
     3.729510648793823        0.3743741015409034E-01
     3.739073496611243        0.3683580636352905E-01
     3.748636344428663        0.3624085096096493E-01
     3.758199192246083        0.3565245305150135E-01
     3.767762040063503        0.3507052267296425E-01
     3.777324887880923        0.3449497078790782E-01
     3.786887735698343        0.3392570927557850E-01
     3.796450583515763        0.3336265092384232E-01
     3.806013431333183        0.3280570942107928E-01
     3.815576279150603        0.3225479934804654E-01
     3.825139126968023        0.3170983616971559E-01
     3.834701974785443        0.3117073622708568E-01
     3.844264822602864        0.3063741672897639E-01
     3.853827670420283        0.3010979574380401E-01
     3.863390518237703        0.2958779219134099E-01
     3.872953366055123        0.2907132583446642E-01
     3.882516213872544        0.2856031727090531E-01
     3.892079061689964        0.2805468792496063E-01
     3.901641909507384        0.2755436003924291E-01
     3.911204757324804        0.2705925666639722E-01
     3.920767605142224        0.2656930166083121E-01
     3.930330452959644        0.2608441967044532E-01
     3.939893300777064        0.2560453612836795E-01
     3.949456148594484        0.2512957724469787E-01
     3.959018996411904        0.2465946999825524E-01
     3.968581844229324        0.2419414212834347E-01
     3.978144692046744        0.2373352212652426E-01
     3.987707539864164        0.2327753922840620E-01
     3.997270387681584        0.2282612340545011E-01
     4.006833235499005        0.2237920535679213E-01
     4.016396083316424        0.2193671650108591E-01
     4.025958931133845        0.2149858896836509E-01
     4.035521778951265        0.2106475559192919E-01
     4.045084626768684        0.2063514990025206E-01
     4.054647474586105        0.2020970610891537E-01
     4.064210322403524        0.1978835911256921E-01
     4.073773170220945        0.1937104447691905E-01
     4.083336018038365        0.1895769843074118E-01
     4.092898865855785        0.1854825785792862E-01
     4.102461713673205        0.1814266028956729E-01
     4.112024561490625        0.1774084389604383E-01
     4.121587409308045        0.1734274747918584E-01
     4.131150257125465        0.1694831046443663E-01
     4.140713104942885        0.1655747289306293E-01
     4.150275952760305        0.1617017541439869E-01
     4.159838800577726        0.1578635927812535E-01
     4.169401648395145        0.1540596632658747E-01
     4.178964496212565        0.1502893898714697E-01
     4.188527344029985        0.1465522026457522E-01
     4.198090191847405        0.1428475373348340E-01
     4.207653039664826        0.1391748353079214E-01
     4.217215887482245        0.1355335434824135E-01
     4.226778735299666        0.1319231142494025E-01
     4.236341583117086        0.1283430053995779E-01
     4.245904430934506        0.1247926800495469E-01
     4.255467278751926        0.1212716065685715E-01
     4.265030126569346        0.1177792585057153E-01
     4.274592974386766        0.1143151145174290E-01
     4.284155822204186        0.1108786582955473E-01
     4.293718670021606        0.1074693784957289E-01
     4.303281517839026        0.1040867686663127E-01
     4.312844365656447        0.1007303271776125E-01
     4.322407213473866        0.9739955715236065E-02
     4.331970061291286        0.9409396653309624E-02
     4.341532909108706        0.9081307157956551E-02
     4.351095756926126        0.8755642285983628E-02
     4.360658604743547        0.8432368591113900E-02
     4.370221452560966        0.8111477967094799E-02
     4.379784300378387        0.7793003344739250E-02
     4.389347148195807        0.7477031562598929E-02
     4.398909996013226        0.7163710734242881E-02
     4.408472843830647        0.6853251682484409E-02
     4.418035691648067        0.6545924373210408E-02
     4.427598539465487        0.6242050776452836E-02
     4.437161387282907        0.5941995557018198E-02
     4.446724235100327        0.5646155747345097E-02
     4.456287082917747        0.5354950254569708E-02
     4.465849930735167        0.5068809781750436E-02
     4.475412778552587        0.4788167526312240E-02
     4.484975626370007        0.4513450858186611E-02
     4.494538474187427        0.4245074067305407E-02
     4.504101322004847        0.3983432194324214E-02
     4.513664169822268        0.3728895909850252E-02
     4.523227017639687        0.3481807378112532E-02
     4.532789865457108        0.3242477024892024E-02
     4.542352713274528        0.3011181122273601E-02
     4.551915561091947        0.2788160101267154E-02
     4.561478408909368        0.2573617505436651E-02
     4.571041256726788        0.2367719502871101E-02
     4.580604104544208        0.2170594879149098E-02
     4.590166952361628        0.1982335439691569E-02
     4.599729800179048        0.1802996755604788E-02
     4.609292647996468        0.1632599192444449E-02
     4.618855495813888        0.1471129166001771E-02
     4.628418343631308        0.1318540572936426E-02
     4.637981191448728        0.1174756346491527E-02
     4.647544039266148        0.1039670088057256E-02
     4.657106887083568        0.9131477230616710E-03
     4.666669734900989        0.7950291228628143E-03
     4.676232582718408        0.6851296198493952E-03
     4.685795430535828        0.5832413146565571E-03
     4.695358278353249        0.4891340195958735E-03
     4.704921126170668        0.4025555732995797E-03
     4.714483973988089        0.3232310326005992E-03
     4.724046821805509        0.2508597284825539E-03
     4.733609669622929        0.1851078640301628E-03
     4.743172517440349        0.1255905064069887E-03
     4.752735365257768        0.7182350396292474E-04
     4.762298213075189        0.2304773245372790E-04
     4.771861060892609         0.000000000000000    
  0  5  2  0  0.000000   #orbital l, n, z, is_polarized, population
 500    0.6546446991723590E-02     3.266677048870071     # npts, delta, cutoff
     0.000000000000000       -0.3704374380569964    
    0.6546446991723590E-02   -0.3703614104456417    
    0.1309289398344718E-01   -0.3701276218758351    
    0.1963934097517077E-01   -0.3697381067147281    
    0.2618578796689436E-01   -0.3691930671460177    
    0.3273223495861795E-01   -0.3684927850279821    
    0.3927868195034154E-01   -0.3676376220635777    
    0.4582512894206513E-01   -0.3666280194615109    
    0.5237157593378872E-01   -0.3654644974554818    
    0.5891802292551231E-01   -0.3641476547231401    
    0.6546446991723590E-01   -0.3626781677138517    
    0.7201091690895949E-01   -0.3610567898886041    
    0.7855736390068307E-01   -0.3592843508740231    
    0.8510381089240666E-01   -0.3573617555321695    
    0.9165025788413025E-01   -0.3552899829477409    
    0.9819670487585384E-01   -0.3530700853343882    
    0.1047431518675774       -0.3507031868619366    
    0.1112895988593010       -0.3481904824064289    
    0.1178360458510246       -0.3455332362250155    
    0.1243824928427482       -0.3427327805578314    
    0.1309289398344718       -0.3397905141591114    