<preamble>

<basis_specs>
===============================================================================
Zr                   Z=  40    Mass=  91.224        Charge= 0.17977+309
Lmxo=2 Lmxkb= 2    BasisType=split      Semic=T
L=0  Nsemic=1  Cnfigmx=5
          i=1  nzeta=1  polorb=0  (4s)  (semicore shell)
            splnorm:   0.15000    
               vcte:    40.000    
               rinn:    2.9846    
               qcoe:    0.0000    
               qyuk:    0.0000    
               qwid:   0.10000E-01
                rcs:    3.3129    
            lambdas:    1.0000    
          i=2  nzeta=2  polorb=0  (5s)  (to be polarized non-perturbatively)
            splnorm:   0.15000    
               vcte:    40.000    
               rinn:    7.5631    
               qcoe:    0.0000    
               qyuk:    0.0000    
               qwid:   0.10000E-01
                rcs:    8.3950      6.1793    
            lambdas:    1.0000      1.0000    
L=1  Nsemic=1  Cnfigmx=5
          i=1  nzeta=1  polorb=0  (4p)  (semicore shell)
            splnorm:   0.15000    
               vcte:    40.000    
               rinn:    3.4413    
               qcoe:    0.0000    
               qyuk:    0.0000    
               qwid:   0.10000E-01
                rcs:    3.8199    
            lambdas:    1.0000    
          i=2  nzeta=1  polorb=0  (5p)  (non-perturbative polarization shell)
            splnorm:   0.15000    
               vcte:    40.000    
               rinn:    7.5631    
               qcoe:    0.0000    
               qyuk:    0.0000    
               qwid:   0.10000E-01
                rcs:    8.3950    
            lambdas:    1.0000    
L=2  Nsemic=0  Cnfigmx=4
          i=1  nzeta=2  polorb=0  (4d)
            splnorm:   0.15000    
               vcte:    40.000    
               rinn:    6.0374    
               qcoe:    0.0000    
               qyuk:    0.0000    
               qwid:   0.10000E-01
                rcs:    6.7083      4.5478    
            lambdas:    1.0000      1.0000    
-------------------------------------------------------------------------------
L=0  Nkbl=2  erefs: 0.17977+309 0.17977+309
L=1  Nkbl=2  erefs: 0.17977+309 0.17977+309
L=2  Nkbl=1  erefs: 0.17977+309
===============================================================================
</basis_specs>

<pseudopotential_header>
 Zr pb nrl pcec
 ONCVPSP-3.2017-10-31Hamann's oncvpsp                        
 4s 2.00  r= 1.57/4p 6.00  r= 1.57/4d 2.00  r= 1.51/                    4s:4p:4d:5s:
</pseudopotential_header>
</preamble>
Zr                            # Symbol
Zr                            # Label
   40                         # Atomic number
     12.0000000000                             # Valence charge
     91.2240000000        # Mass 
     155.922284017        # Self energy 
   2   7                      # Lmax for basis, no. of nl orbitals 
   2   6                      # Lmax for projectors, no. of nl KB projectors
# PAOs:__________________________
  0  4  1  0  2.000000   #orbital l, n, z, is_polarized, population
 500    0.6639024340076688E-02     3.312873145698267     # npts, delta, cutoff
     0.000000000000000        0.1885471284018819    
    0.6639024340076688E-02    0.1886872008215178    
    0.1327804868015338E-01    0.1891186057367765    
    0.1991707302023006E-01    0.1898372798499983    
    0.2655609736030675E-01    0.1908427152286518    
    0.3319512170038344E-01    0.1921342030176577    
    0.3983414604046013E-01    0.1937108330387739    
    0.4647317038053682E-01    0.1955714943571240    
    0.5311219472061351E-01    0.1977148761045603    
    0.5975121906069020E-01    0.2001394684806262    
    0.6639024340076688E-01    0.2028435639149434    
    0.7302926774084358E-01    0.2058252583862534    
    0.7966829208092026E-01    0.2090824528961483    
    0.8630731642099695E-01    0.2126128550963396    
    0.9294634076107364E-01    0.2164139810685515    
    0.9958536510115033E-01    0.2204831572561815    
    0.1062243894412270        0.2248175225468391    
    0.1128634137813037        0.2294140305048196    
    0.1195024381213804        0.2342694517524956    
    0.1261414624614571        0.2393803764995128    
    0.1327804868015338        0.2447432172185867    
    0.1394195111416105        0.2503542114665931    
    0.1460585354816872        0.2562094248495349    
    0.1526975598217638        0.2623047541298421    
    0.1593365841618405        0.2686359304743565    
    0.1659756085019172        0.2751985228412057    
    0.1726146328419939        0.2819879415036438    
    0.1792536571820706        0.2889994417088033    
    0.1858926815221473        0.2962281274691337    
    0.1925317058622240        0.3036689554841789    
    0.1991707302023007        0.3113167391901657    
    0.2058097545423773        0.3191661529347296    
    0.2124487788824540        0.3272117362739297    
    0.2190878032225307        0.3354478983885406    
    0.2257268275626074        0.3438689226164352    
    0.2323658519026841        0.3524689710976971    
    0.2390048762427608        0.3612420895289238    
    0.2456439005828375        0.3701822120230053    
    0.2522829249229142        0.3792831660704751    
    0.2589219492629908        0.3885386775983574    
    0.2655609736030675        0.3979423761222496    
    0.2721999979431442        0.4074877999872021    
    0.2788390222832209        0.4171684016927679    
    0.2854780466232976        0.4269775532974392    
    0.2921170709633743        0.4369085518974851    
    0.2987560953034510        0.4469546251750608    
    0.3053951196435277        0.4571089370102727    
    0.3120341439836044        0.4673645931517288    
    0.3186731683236810        0.4777146469399579    
    0.3253121926637577        0.4881521050779043    
    0.3319512170038344        0.4986699334425859    
    0.3385902413439111        0.5092610629318607    
    0.3452292656839878        0.5199183953401113    
    0.3518682900240645        0.5306348092565437    
    0.3585073143641412        0.5414031659796925    
    0.3651463387042179        0.5522163154416174    
    0.3717853630442945        0.5630671021351815    
    0.3784243873843712        0.5739483710377508    
    0.3850634117244479        0.5848529735245523    
    0.3917024360645246        0.5957737732648987    
    0.3983414604046013        0.6067036520944514    
    0.4049804847446780        0.6176355158566378    
    0.4116195090847547        0.6285623002063581    
    0.4182585334248314        0.6394769763690897    
    0.4248975577649081        0.6503725568485362    
    0.4315365821049847        0.6612421010759563    
    0.4381756064450614        0.6720787209944149    
    0.4448146307851381        0.6828755865711797    
    0.4514536551252148        0.6936259312316201    
    0.4580926794652915        0.7043230572080162    
    0.4647317038053682        0.7149603407968074    
    0.4713707281454449        0.7255312375179046    
    0.4780097524855216        0.7360292871698589    
    0.4846487768255983        0.7464481187747620    
    0.4912878011656749        0.7567814554069893    
    0.4979268255057516        0.7670231188999872    
    0.5045658498458283        0.7771670344255824    
    0.5112048741859050        0.7872072349404041    
    0.5178438985259817        0.7971378654942802    
    0.5244829228660584        0.8069531873956532    
    0.5311219472061350        0.8166475822293546    
    0.5377609715462117        0.8262155557222302    
    0.5443999958862884        0.8356517414524802    
    0.5510390202263652        0.8449509043987289    
    0.5576780445664419        0.8541079443252165    
    0.5643170689065186        0.8631178989997008    
    0.5709560932465952        0.8719759472410340    
    0.5775951175866719        0.8806774117935924    
    0.5842341419267486        0.8892177620261125    
    0.5908731662668253        0.8975926164527408    
    0.5975121906069020        0.9057977450744636    
    0.6041512149469787        0.9138290715393800    
    0.6107902392870553        0.9216826751205499    
    0.6174292636271320        0.9293547925105806    
    0.6240682879672087        0.9368418194323459    
    0.6307073123072854        0.9441403120655608    
    0.6373463366473621        0.9512469882892851    
    0.6439853609874387        0.9581587287407447    
    0.6506243853275154        0.9648725776911377    
    0.6572634096675921        0.9713857437394290    
    0.6639024340076688        0.9776956003254527    
    0.6705414583477456        0.9837996860639056    
    0.6771804826878223        0.9896957049011124    
    0.6838195070278990        0.9953815260968140    
    0.6904585313679756         1.000855184033338    
    0.6970975557080523         1.006114877854932    
    0.7037365800481290         1.011158970940249    
    0.7103756043882057         1.015985990211192    
    0.7170146287282824         1.020594625281590    
    0.7236536530683590         1.024983727449421    
    0.7302926774084357         1.029152308536458    
    0.7369317017485124         1.033099539579480    
    0.7435707260885891         1.036824749377322    
    0.7502097504286658         1.040327422898272    
    0.7568487747687425         1.043607199552393    
    0.7634877991088191         1.046663871333615    
    0.7701268234488958         1.049497380836475    
    0.7767658477889725         1.052107819152556    
    0.7834048721290492         1.054495423651751    
    0.7900438964691260         1.056660575653603    
    0.7966829208092027         1.058603797993993    
    0.8033219451492793         1.060325752492584    
    0.8099609694893560         1.061827237326381    
    0.8165999938294327         1.063109184314901    
    0.8232390181695094         1.064172656122361    
    0.8298780425095861         1.065018843382387    
    0.8365170668496628         1.065649061750678    
    0.8431560911897394         1.066064748891050    
    0.8497951155298161         1.066267461400262    
    0.8564341398698928         1.066258871676954    
    0.8630731642099695         1.066040764739989    
    0.8697121885500462         1.065615035001400    
    0.8763512128901229         1.064983682999050    
    0.8829902372301995         1.064148812094071    
    0.8896292615702762         1.063112625137962    
    0.8962682859103529         1.061877421114181    
    0.9029073102504296         1.060445591758910    
    0.9095463345905063         1.058819618165548    
    0.9161853589305831         1.057002067377348    
    0.9228243832706597         1.054995588972476    
    0.9294634076107364         1.052802911645607    
    0.9361024319508131         1.050426839790041    
    0.9427414562908898         1.047870250084120    
    0.9493804806309665         1.045136088085619    
    0.9560195049710432         1.042227364837557    
    0.9626585293111198         1.039147153488775    
    0.9692975536511965         1.035898585932379    
    0.9759365779912732         1.032484849465038    
    0.9825756023313499         1.028909184082671    
    0.9892146266714266         1.025174877831425    
    0.9958536510115032         1.021285263929086    
     1.002492675351580         1.017243718391038    
     1.009131699691657         1.013053656337484    
     1.015770724031733         1.008718528830647    
     1.022409748371810         1.004241819748921    
     1.029048772711887        0.9996270426996361    
     1.035687797051963        0.9948777379718605    
     1.042326821392040        0.9899974695306211    
     1.048965845732117        0.9849898220538116    
     1.055604870072193        0.9798583980128320    
     1.062243894412270        0.9746068147979849    
     1.068882918752347        0.9692387018894143    
     1.075521943092423        0.9637576980743555    
     1.082160967432500        0.9581674487112851    
     1.088799991772577        0.9524716030415746    
     1.095439016112654        0.9466738115490088    
     1.102078040452730        0.9407777233676403    
     1.108717064792807        0.9347869837381539    
     1.115356089132884        0.9287052315130027    
     1.121995113472960        0.9225360967104459    
     1.128634137813037        0.9162831981177214    
     1.135273162153114        0.9099501409432729    
     1.141912186493190        0.9035405145180947    
     1.148551210833267        0.8970578900461610    
     1.155190235173344        0.8905058184040632    
     1.161829259513421        0.8838878279896273    
     1.168468283853497        0.8772074226195664    
     1.175107308193574        0.8704680794760098    
     1.181746332533651        0.8636732471020108    
     1.188385356873727        0.8568263434458019    
     1.195024381213804        0.8499307539539294    
     1.201663405553881        0.8429898297131010    
     1.208302429893957        0.8360068856408516    
     1.214941454234034        0.8289851987249410    
     1.221580478574111        0.8219280063116703    
     1.228219502914187        0.8148385044431071    
     1.234858527254264        0.8077198462433481    
     1.241497551594341        0.8005751403539734    
     1.248136575934417        0.7934074494188419    
     1.254775600274494        0.7862197886185488    
     1.261414624614571        0.7790151242546379    
     1.268053648954647        0.7717963723840786    
     1.274692673294724        0.7645663975041025    
     1.281331697634801        0.7573280112879683    
     1.287970721974877        0.7500839713718855    
     1.294609746314954        0.7428369801936467    
     1.301248770655031        0.7355896838834036    
     1.307887794995108        0.7283446712069948    
     1.314526819335184        0.7211044725625081    
     1.321165843675261        0.7138715590303812    
     1.327804868015338        0.7066483414778203    
     1.334443892355414        0.6994371697178978    
     1.341082916695491        0.6922403317240332    
     1.347721941035568        0.6850600529004126    
     1.354360965375645        0.6778984954088106    
     1.360999989715721        0.6707577575525991    
     1.367639014055798        0.6636398732182605    
     1.374278038395875        0.6565468113751229    
     1.380917062735951        0.6494804756337552    
     1.387556087076028        0.6424427038635047    
     1.394195111416105        0.6354352678697565    
     1.400834135756181        0.6284598731311858    
     1.407473160096258        0.6215181585975170    
     1.414112184436335        0.6146116965480661    
     1.420751208776411        0.6077419925113492    
     1.427390233116488        0.6009104852460380    
     1.434029257456565        0.5941185467833779    
     1.440668281796641        0.5873674825312013    
     1.447307306136718        0.5806585314395385    
     1.453946330476795        0.5739928662278770    
     1.460585354816871        0.5673715936742334    
     1.467224379156948        0.5607957549642338    
     1.473863403497025        0.5542663261023354    
     1.480502427837102        0.5477842183851636    
     1.487141452177178        0.5413502789299743    
     1.493780476517255        0.5349652912671115    
     1.500419500857332        0.5286299759906683    
     1.507058525197408        0.5223449914733230    
     1.513697549537485        0.5161109346095808    
     1.520336573877562        0.5099283415490480    
     1.526975598217638        0.5037976887164178    
     1.533614622557715        0.4977193940574405    
     1.540253646897792        0.4916938183163336    
     1.546892671237868        0.4857212647507376    
     1.553531695577945        0.4798019790498060    
     1.560170719918022        0.4739361508610238    
     1.566809744258098        0.4681239193016433    
     1.573448768598175        0.4623653795687416    
     1.580087792938252        0.4566605901929207    
     1.586726817278329        0.4510095804920951    
     1.593365841618405        0.4454123573171911    
     1.600004865958482        0.4398689086186411    
     1.606643890298559        0.4343792032608734    
     1.613282914638635        0.4289431900819907    
     1.619921938978712        0.4235607980441434    
     1.626560963318789        0.4182319375354718    
     1.633199987658865        0.4129565014079544    
     1.639839011998942        0.4077343658158912    
     1.646478036339019        0.4025653908421868    
     1.653117060679095        0.3974494212234819    
     1.659756085019172        0.3923862869976450    
     1.666395109359249        0.3873758041692189    
     1.673034133699326        0.3824177753426246    
     1.679673158039402        0.3775119903526325    
     1.686312182379479        0.3726582268627062    
     1.692951206719556        0.3678562509451510    
     1.699590231059632        0.3631058176415500    
     1.706229255399709        0.3584066715068968    
     1.712868279739786        0.3537585471358253    
     1.719507304079862        0.3491611696718229    
     1.726146328419939        0.3446142552996053    
     1.732785352760016        0.3401175117210047    
     1.739424377100092        0.3356706386154151    
     1.746063401440169        0.3312733280849238    
     1.752702425780246        0.3269252650843382    
     1.759341450120322        0.3226261278368556    
     1.765980474460399        0.3183755882357016    
     1.772619498800476        0.3141733122319508    
     1.779258523140552        0.3100189602090648    
     1.785897547480629        0.3059121873447108    
     1.792536571820706        0.3018526439598694    
     1.799175596160782        0.2978399758556631    
     1.805814620500859        0.2938738246386274    
     1.812453644840936        0.2899538280343285    
     1.819092669181013        0.2860796201896655    
     1.825731693521089        0.2822508319646370    
     1.832370717861166        0.2784670912134422    
     1.839009742201243        0.2747280230552414    
     1.845648766541319        0.2710332501351903    
     1.852287790881396        0.2673823928757960    
     1.858926815221473        0.2637750697188576    
     1.865565839561550        0.2602108973583581    
     1.872204863901626        0.2566894909646559    
     1.878843888241703        0.2532104644000569    
     1.885482912581780        0.2497734304260347    
     1.892121936921856        0.2463780009025819    
     1.898760961261933        0.2430237869796728    
     1.905399985602010        0.2397103992811295    
     1.912039009942086        0.2364374480812313    
     1.918678034282163        0.2332045434742044    
     1.925317058622240        0.2300112955367954    
     1.931956082962316        0.2268573144841500    
     1.938595107302393        0.2237422108192713    
     1.945234131642470        0.2206655954761699    
     1.951873155982546        0.2176270799569157    
     1.958512180322623        0.2146262764628268    
     1.965151204662700        0.2116627980199319    
     1.971790229002776        0.2087362585989078    
     1.978429253342853        0.2058462732296596    
     1.985068277682930        0.2029924581107061    
     1.991707302023006        0.2001744307135423    
     1.998346326363083        0.1973918098821707    
     2.004985350703160        0.1946442159278797    
     2.011624375043237        0.1919312707194809    
     2.018263399383313        0.1892525977691410    
     2.024902423723390        0.1866078223139883    
     2.031541448063467        0.1839965713935144    
     2.038180472403543        0.1814184739230265    
     2.044819496743620        0.1788731607632783    
     2.051458521083697        0.1763602647863350    
     2.058097545423773        0.1738794209378090    
     2.064736569763850        0.1714302662956267    
     2.071375594103927        0.1690124401255240    
     2.078014618444004        0.1666255839331449    
     2.084653642784080        0.1642693415130756    
     2.091292667124157        0.1619433589948337    
     2.097931691464233        0.1596472848860244    
     2.104570715804310        0.1573807701125051    
     2.111209740144387        0.1551434680559331    
     2.117848764484464        0.1529350345886894    
     2.124487788824540        0.1507551281062996    
     2.131126813164617        0.1486034095573054    
     2.137765837504694        0.1464795424708606    
     2.144404861844770        0.1443831929821098    
     2.151043886184847        0.1423140298553305    
     2.157682910524924        0.1402717245049505    
     2.164321934865000        0.1382559510145766    
     2.170960959205077        0.1362663861541624    
     2.177599983545154        0.1343027093951964    
     2.184239007885231        0.1323646029241283    
     2.190878032225307        0.1304517516540746    
     2.197517056565384        0.1285638432349552    
     2.204156080905461        0.1267005680619145    
     2.210795105245537        0.1248616192822760    
     2.217434129585614        0.1230466928010222    
     2.224073153925691        0.1212554872849564    
     2.230712178265768        0.1194877041654016    
     2.237351202605844        0.1177430476396762    
     2.243990226945921        0.1160212246713252    
     2.250629251285997        0.1143219449892337    
     2.257268275626074        0.1126449210855310    
     2.263907299966151        0.1109898682124641    
     2.270546324306228        0.1093565043782340    
     2.277185348646304        0.1077445503418912    
     2.283824372986381        0.1061537296072446    
     2.290463397326457        0.1045837684159062    
     2.297102421666534        0.1030343957394879    
     2.303741446006611        0.1015053432709931    
     2.310380470346688        0.9999634541543546E-01
     2.317019494686764        0.9850713927973274E-01
     2.323658519026841        0.9703746466190902E-01
     2.330297543366918        0.9558706403962582E-01
     2.336936567706994        0.9415568255810158E-01
     2.343575592047071        0.9274306801744789E-01
     2.350214616387148        0.9134897085943633E-01
     2.356853640727224        0.8997314415372959E-01
     2.363492665067301        0.8861534358359636E-01
     2.370131689407378        0.8727532743121032E-01
     2.376770713747455        0.8595285656245592E-01
     2.383409738087531        0.8464769441133987E-01
     2.390048762427608        0.8335960696392641E-01
     2.396687786767684        0.8208836274203479E-01
     2.403326811107761        0.8083373278649786E-01
     2.409965835447838        0.7959549064013791E-01
     2.416604859787915        0.7837341233032652E-01
     2.423243884127991        0.7716727635140462E-01
     2.429882908468068        0.7597686364676284E-01
     2.436521932808145        0.7480195759068764E-01
     2.443160957148221        0.7364234396991970E-01
     2.449799981488298        0.7249781096502550E-01
     2.456439005828375        0.7136814913163132E-01
     2.463078030168452        0.7025315138139884E-01
     2.469717054508528        0.6915261296286215E-01
     2.476356078848605        0.6806633144200637E-01
     2.482995103188681        0.6699410668286732E-01
     2.489634127528758        0.6593574082788967E-01
     2.496273151868835        0.6489103827821364E-01
     2.502912176208912        0.6385980567373810E-01
     2.509551200548988        0.6284185187320859E-01
     2.516190224889065        0.6183698793420343E-01
     2.522829249229142        0.6084502709299858E-01
     2.529468273569218        0.5986578474438643E-01
     2.536107297909295        0.5889907842134857E-01
     2.542746322249372        0.5794472777482158E-01
     2.549385346589448        0.5700255455332019E-01
     2.556024370929525        0.5607238258255958E-01
     2.562663395269602        0.5515403774498325E-01
     2.569302419609679        0.5424734795932740E-01
     2.575941443949755        0.5335214316018398E-01
     2.582580468289832        0.5246825527751266E-01
     2.589219492629908        0.5159551821617874E-01
     2.595858516969985        0.5073376783541082E-01
     2.602497541310062        0.4988284192839314E-01
     2.609136565650139        0.4904258020179085E-01
     2.615775589990215        0.4821282425531470E-01
     2.622414614330292        0.4739341756130559E-01
     2.629053638670368        0.4658420544432425E-01
     2.635692663010445        0.4578503506082832E-01
     2.642331687350522        0.4499575537884776E-01
     2.648970711690599        0.4421621715771383E-01
     2.655609736030675        0.4344627292782802E-01
     2.662248760370752        0.4268577697048758E-01
     2.668887784710829        0.4193458529777049E-01
     2.675526809050905        0.4119255563247218E-01
     2.682165833390982        0.4045954738810414E-01
     2.688804857731059        0.3973542164897330E-01
     2.695443882071136        0.3902004115031230E-01
     2.702082906411212        0.3831327025849057E-01
     2.708721930751289        0.3761497495130536E-01
     2.715360955091366        0.3692502279834060E-01
     2.721999979431442        0.3624328294145084E-01
     2.728639003771519        0.3556962607527159E-01
     2.735278028111596        0.3490392442785208E-01
     2.741917052451672        0.3424605174137561E-01
     2.748556076791749        0.3359588325296416E-01
     2.755195101131826        0.3295329567563454E-01
     2.761834125471903        0.3231816717926639E-01
     2.768473149811979        0.3169037737172768E-01
     2.775112174152056        0.3106980728009437E-01
     2.781751198492132        0.3045633933196453E-01
     2.788390222832209        0.2984985733694714E-01
     2.795029247172286        0.2925024646815362E-01
     2.801668271512363        0.2865739324387308E-01
     2.808307295852439        0.2807118550934763E-01
     2.814946320192516        0.2749151241864895E-01
     2.821585344532592        0.2691826441674650E-01
     2.828224368872669        0.2635133322157752E-01
     2.834863393212746        0.2579061180631585E-01
     2.841502417552823        0.2523599438174574E-01
     2.848141441892899        0.2468737637874146E-01
     2.854780466232976        0.2414465443095189E-01
     2.861419490573053        0.2360772635748856E-01
     2.868058514913129        0.2307649114581959E-01
     2.874697539253206        0.2255084893477316E-01
     2.881336563593283        0.2203070099765476E-01
     2.887975587933359        0.2151594972555763E-01
     2.894614612273436        0.2100649861071120E-01
     2.901253636613513        0.2050225223001286E-01
     2.907892660953590        0.2000311622868112E-01
     2.914531685293666        0.1950899730403231E-01
     2.921170709633743        0.1901980318942046E-01
     2.927809733973820        0.1853544263827029E-01
     2.934448758313896        0.1805582540825041E-01
     2.941087782653973        0.1758086224558705E-01
     2.947726806994050        0.1711046486950406E-01
     2.954365831334127        0.1664454595680021E-01
     2.961004855674203        0.1618301912656253E-01
     2.967643880014280        0.1572579892498525E-01
     2.974282904354356        0.1527280081034182E-01
     2.980921928694433        0.1482394113807959E-01
     2.987560953034510        0.1437913714604356E-01
     2.994199977374587        0.1393830693984097E-01
     3.000839001714663        0.1350136947831325E-01
     3.007478026054740        0.1306824456077887E-01
     3.014117050394816        0.1263885290592564E-01
     3.020756074734893        0.1221311727323426E-01
     3.027395099074970        0.1179096745170395E-01
     3.034034123415047        0.1137235121435370E-01
     3.040673147755123        0.1095724916759848E-01
     3.047312172095200        0.1054568895719727E-01
     3.053951196435277        0.1013775526742882E-01
     3.060590220775353        0.9733594270145389E-02
     3.067229245115430        0.9333412885240089E-02
     3.073868269455507        0.8937474026769577E-02
     3.080507293795583        0.8546089178105017E-02
     3.087146318135660        0.8159609482715716E-02
     3.093785342475737        0.7778416269053462E-02
     3.100424366815814        0.7402911659070420E-02
     3.107063391155890        0.7033509684513916E-02
     3.113702415495967        0.6670628163142759E-02
     3.120341439836043        0.6314681463693040E-02
     3.126980464176120        0.5966074204141713E-02
     3.133619488516197        0.5625195872841809E-02
     3.140258512856274        0.5292416328123374E-02
     3.146897537196350        0.4968082112571748E-02
     3.153536561536427        0.4652513508551669E-02
     3.160175585876504        0.4346002258352385E-02
     3.166814610216580        0.4048809873103991E-02
     3.173453634556657        0.3761166457762126E-02
     3.180092658896734        0.3483269983866318E-02
     3.186731683236811        0.3215285946662516E-02
     3.193370707576887        0.2957347348035111E-02
     3.200009731916964        0.2709554951147094E-02
     3.206648756257040        0.2471977756392485E-02
     3.213287780597117        0.2244653650915155E-02
     3.219926804937194        0.2027590185126322E-02
     3.226565829277271        0.1820765428691162E-02
     3.233204853617347        0.1624128854342333E-02
     3.239843877957424        0.1437602188757973E-02
     3.246482902297501        0.1261080152295200E-02
     3.253121926637577        0.1094430977121486E-02
     3.259760950977654        0.9374965340953589E-03
     3.266399975317731        0.7900917850571332E-03
     3.273038999657807        0.6520030501747033E-03
     3.279678023997884        0.5229840913893667E-03
     3.286317048337961        0.4027478608464773E-03
     3.292956072678038        0.2909486824418237E-03
     3.299595097018114        0.1871397861423198E-03
     3.306234121358191        0.9064939146673246E-04
     3.312873145698267         0.000000000000000    
  0  5  1  0  2.000000   #orbital l, n, z, is_polarized, population
 500    0.1682369861993176E-01     8.395025611345947     # npts, delta, cutoff
     0.000000000000000        0.8029728826670050E-01
    0.1682369861993176E-01    0.8067496293757793E-01
    0.3364739723986351E-01    0.8181054083306191E-01