
     Program PWSCF v.7.3 starts on  5Jan2024 at  8:13:22 

     This program is part of the open-source Quantum ESPRESSO suite
     for quantum simulation of materials; please cite
         "P. Giannozzi et al., J. Phys.:Condens. Matter 21 395502 (2009);
         "P. Giannozzi et al., J. Phys.:Condens. Matter 29 465901 (2017);
         "P. Giannozzi et al., J. Chem. Phys. 152 154105 (2020);
          URL http://www.quantum-espresso.org", 
     in publications or presentations arising from this work. More details at
     http://www.quantum-espresso.org/quote

     Parallel version (MPI), running on   128 processors

     MPI processes distributed on     2 nodes
     481945 MiB available memory on the printing compute node when the environment starts
 
     Reading input from MnO.gga.in

     Current dimensions of program PWSCF are:
     Max number of different atomic species (ntypx) = 10
     Max number of k-points (npk) =  40000
     Max angular momentum in pseudopotentials (lmaxx) =  4
     Message from routine setup:
     using ibrav=0 with symmetry is DISCOURAGED, use correct ibrav instead
     [opt_tetra]  Optimized tetrahedron method is used.
     -----------------------------------------------------------
     List of the nearest neighbors for inter-site interactions V
     -----------------------------------------------------------
     atom 1:  1,  atom 2:  4,    -1    -1     0
     atom 1:  1,  atom 2:  4,    -1     0    -1
     atom 1:  1,  atom 2:  3,    -1     0     0
     atom 1:  2,  atom 2:  4,    -1     0     0
     atom 1:  3,  atom 2:  2,    -1     0     0
     atom 1:  1,  atom 2:  4,     0    -1    -1
     atom 1:  1,  atom 2:  3,     0    -1     0
     atom 1:  2,  atom 2:  4,     0    -1     0
     atom 1:  3,  atom 2:  2,     0    -1     0
     atom 1:  1,  atom 2:  3,     0     0    -1
     atom 1:  2,  atom 2:  4,     0     0    -1
     atom 1:  3,  atom 2:  2,     0     0    -1
     atom 1:  2,  atom 2:  3,     0     0     1
     atom 1:  3,  atom 2:  1,     0     0     1
     atom 1:  4,  atom 2:  2,     0     0     1
     atom 1:  2,  atom 2:  3,     0     1     0
     atom 1:  3,  atom 2:  1,     0     1     0
     atom 1:  4,  atom 2:  2,     0     1     0
     atom 1:  4,  atom 2:  1,     0     1     1
     atom 1:  2,  atom 2:  3,     1     0     0
     atom 1:  3,  atom 2:  1,     1     0     0
     atom 1:  4,  atom 2:  2,     1     0     0
     atom 1:  4,  atom 2:  1,     1     0     1
     atom 1:  4,  atom 2:  1,     1     1     0
 
 
     K-points division:     npool     =      16
     R & G space division:  proc/nbgrp/npool/nimage =       8
     Subspace diagonalization in iterative solution of the eigenvalue problem:
     a serial algorithm will be used

 
     Parallelization info
     --------------------
     sticks:   dense  smooth     PW     G-vecs:    dense   smooth      PW
     Min         232     232     72                 5007     5007     864
     Max         233     233     73                 5008     5008     866
     Sum        1861    1861    581                40057    40057    6923
 
     Using Slab Decomposition
 


     bravais-lattice index     =            0
     lattice parameter (alat)  =      10.2900  a.u.
     unit-cell volume          =     296.5285 (a.u.)^3
     number of atoms/cell      =            4
     number of atomic types    =            3
     number of electrons       =        42.00
     number of Kohn-Sham states=           36
     kinetic-energy cutoff     =     100.0000  Ry
     charge density cutoff     =     400.0000  Ry
     scf convergence threshold =      1.0E-08
     mixing beta               =       0.7000
     number of iterations used =            8  plain     mixing
     Exchange-correlation= PBE
                           (   1   4   3   4   0   0   0)

     celldm(1)=  10.289967  celldm(2)=   0.000000  celldm(3)=   0.000000
     celldm(4)=   0.000000  celldm(5)=   0.000000  celldm(6)=   0.000000

     crystal axes: (cart. coord. in units of alat)
               a(1) = (   0.272169   0.680413   0.680413 )  
               a(2) = (   0.680413   0.272169   0.680413 )  
               a(3) = (   0.680413   0.680413   0.272169 )  

     reciprocal axes: (cart. coord. in units 2 pi/alat)
               b(1) = ( -1.428886  1.020629  1.020629 )  
               b(2) = (  1.020629 -1.428886  1.020629 )  
               b(3) = (  1.020629  1.020629 -1.428886 )  


     PseudoPot. # 1 for Mn read from file:
     ~/pseudo/pseudodojo/nc_sr/Mn.upf
     MD5 check sum: Not computed, couldn't open file
     Pseudo is Norm-conserving + core correction, Zval = 15.0
     Generated using ONCVPSP code by D. R. Hamann
     Using radial grid of 1464 points,  6 beta functions with: 
                l(1) =   0
                l(2) =   0
                l(3) =   1
                l(4) =   1
                l(5) =   2
                l(6) =   2

     PseudoPot. # 2 for Mn read from file:
     ~/pseudo/pseudodojo/nc_sr/Mn.upf
     MD5 check sum: Not computed, couldn't open file
     Pseudo is Norm-conserving + core correction, Zval = 15.0
     Generated using ONCVPSP code by D. R. Hamann
     Using radial grid of 1464 points,  6 beta functions with: 
                l(1) =   0
                l(2) =   0
                l(3) =   1
                l(4) =   1
                l(5) =   2
                l(6) =   2

     PseudoPot. # 3 for O  read from file:
     ~/pseudo/pseudodojo/nc_sr/O.upf
     MD5 check sum: Not computed, couldn't open file
     Pseudo is Norm-conserving + core correction, Zval =  6.0
     Generated using ONCVPSP code by D. R. Hamann
     Using radial grid of  936 points,  5 beta functions with: 
                l(1) =   0
                l(2) =   0
                l(3) =   1
                l(4) =   1
                l(5) =   2

     atomic species   valence    mass     pseudopotential
     MnA              15.00    54.93805     Mn( 1.00)
     MnB              15.00    54.93805     Mn( 1.00)
     O                 6.00    15.99940     O ( 1.00)

     Starting magnetic structure 
     atomic species   magnetization
     MnA            -0.200
     MnB             0.200
     O               0.000

     12 Sym. Ops., with inversion, found


                                    s                        frac. trans.

      isym =  1     identity                                     

 cryst.   s( 1) = (     1          0          0      )
                  (     0          1          0      )
                  (     0          0          1      )

 cart.    s( 1) = (  1.0000000 -0.0000000 -0.0000000 )
                  ( -0.0000000  1.0000000 -0.0000000 )
                  ( -0.0000000 -0.0000000  1.0000000 )


      isym =  2     180 deg rotation - cart. axis [1,-1,0]       

 cryst.   s( 2) = (     0         -1          0      )
                  (    -1          0          0      )
                  (     0          0         -1      )

 cart.    s( 2) = (  0.0000000 -1.0000000  0.0000000 )
                  ( -1.0000000  0.0000000  0.0000000 )
                  (  0.0000000  0.0000000 -1.0000000 )


      isym =  3     180 deg rotation - cart. axis [-1,0,1]       

 cryst.   s( 3) = (     0          0         -1      )
                  (     0         -1          0      )
                  (    -1          0          0      )

 cart.    s( 3) = (  0.0000000  0.0000000 -1.0000000 )
                  (  0.0000000 -1.0000000  0.0000000 )
                  ( -1.0000000  0.0000000  0.0000000 )


      isym =  4     180 deg rotation - cart. axis [0,1,-1]       

 cryst.   s( 4) = (    -1          0          0      )
                  (     0          0         -1      )
                  (     0         -1          0      )

 cart.    s( 4) = ( -1.0000000  0.0000000  0.0000000 )
                  (  0.0000000  0.0000000 -1.0000000 )
                  (  0.0000000 -1.0000000  0.0000000 )


      isym =  5     120 deg rotation - cart. axis [-1,-1,-1]     

 cryst.   s( 5) = (     0          0          1      )
                  (     1          0          0      )
                  (     0          1          0      )

 cart.    s( 5) = ( -0.0000000  1.0000000 -0.0000000 )
                  ( -0.0000000 -0.0000000  1.0000000 )
                  (  1.0000000 -0.0000000 -0.0000000 )


      isym =  6     120 deg rotation - cart. axis [1,1,1]        

 cryst.   s( 6) = (     0          1          0      )
                  (     0          0          1      )
                  (     1          0          0      )

 cart.    s( 6) = ( -0.0000000 -0.0000000  1.0000000 )
                  (  1.0000000 -0.0000000 -0.0000000 )
                  ( -0.0000000  1.0000000 -0.0000000 )


      isym =  7     inversion                                    

 cryst.   s( 7) = (    -1          0          0      )
                  (     0         -1          0      )
                  (     0          0         -1      )

 cart.    s( 7) = ( -1.0000000  0.0000000  0.0000000 )
                  (  0.0000000 -1.0000000  0.0000000 )
                  (  0.0000000  0.0000000 -1.0000000 )


      isym =  8     inv. 180 deg rotation - cart. axis [1,-1,0]  

 cryst.   s( 8) = (     0          1          0      )
                  (     1          0          0      )
                  (     0          0          1      )

 cart.    s( 8) = ( -0.0000000  1.0000000 -0.0000000 )
                  (  1.0000000 -0.0000000 -0.0000000 )
                  ( -0.0000000 -0.0000000  1.0000000 )


      isym =  9     inv. 180 deg rotation - cart. axis [-1,0,1]  

 cryst.   s( 9) = (     0          0          1      )
                  (     0          1          0      )
                  (     1          0          0      )

 cart.    s( 9) = ( -0.0000000 -0.0000000  1.0000000 )
                  ( -0.0000000  1.0000000 -0.0000000 )
                  (  1.0000000 -0.0000000 -0.0000000 )


      isym = 10     inv. 180 deg rotation - cart. axis [0,1,-1]  

 cryst.   s(10) = (     1          0          0      )
                  (     0          0          1      )
                  (     0          1          0      )

 cart.    s(10) = (  1.0000000 -0.0000000 -0.0000000 )
                  ( -0.0000000 -0.0000000  1.0000000 )
                  ( -0.0000000  1.0000000 -0.0000000 )


      isym = 11     inv. 120 deg rotation - cart. axis [-1,-1,-1]

 cryst.   s(11) = (     0          0         -1      )
                  (    -1          0          0      )
                  (     0         -1          0      )

 cart.    s(11) = (  0.0000000 -1.0000000  0.0000000 )
                  (  0.0000000  0.0000000 -1.0000000 )
                  ( -1.0000000  0.0000000  0.0000000 )


      isym = 12     inv. 120 deg rotation - cart. axis [1,1,1]   

 cryst.   s(12) = (     0         -1          0      )
                  (     0          0         -1      )
                  (    -1          0          0      )

 cart.    s(12) = (  0.0000000  0.0000000 -1.0000000 )
                  ( -1.0000000  0.0000000  0.0000000 )
                  (  0.0000000 -1.0000000  0.0000000 )


   Cartesian axes

     site n.     atom                  positions (alat units)
         1        MnA    tau(   1) = (   0.0000000   0.0000000   0.0000000  )
         2        MnB    tau(   2) = (   0.8164975   0.8164975   0.8164975  )
         3        O      tau(   3) = (   0.4082488   0.4082488   0.4082488  )
         4        O      tau(   4) = (   1.2247462   1.2247462   1.2247462  )

   Crystallographic axes

     site n.     atom                  positions (cryst. coord.)
         1        MnA    tau(   1) = (  0.0000000  0.0000000  0.0000000  )
         2        MnB    tau(   2) = (  0.5000000  0.5000000  0.5000000  )
         3        O      tau(   3) = (  0.2500000  0.2500000  0.2500000  )
         4        O      tau(   4) = (  0.7500000  0.7500000  0.7500000  )

     number of k points=   344 (tetrahedron method)
                       cart. coord. in units 2pi/alat
        k(    1) = (   0.0000000   0.0000000   0.0000000), wk =   0.0002963
        k(    2) = (   0.0680419   0.0680419  -0.0952591), wk =   0.0017778
        k(    3) = (   0.1360839   0.1360839  -0.1905182), wk =   0.0017778
        k(    4) = (   0.2041258   0.2041258  -0.2857773), wk =   0.0017778
        k(    5) = (   0.2721678   0.2721678  -0.3810364), wk =   0.0017778
        k(    6) = (   0.3402097   0.3402097  -0.4762955), wk =   0.0017778
        k(    7) = (   0.4082516   0.4082516  -0.5715546), wk =   0.0017778
        k(    8) = (   0.4762936   0.4762936  -0.6668137), wk =   0.0017778
        k(    9) = (   0.1360839  -0.0272172  -0.0272172), wk =   0.0017778
        k(   10) = (   0.2041258   0.0408248  -0.1224762), wk =   0.0035556
        k(   11) = (   0.2721678   0.1088667  -0.2177353), wk =   0.0035556
        k(   12) = (   0.3402097   0.1769087  -0.3129944), wk =   0.0035556
        k(   13) = (   0.4082516   0.2449506  -0.4082535), wk =   0.0035556
        k(   14) = (   0.4762936   0.3129925  -0.5035126), wk =   0.0035556
        k(   15) = (   0.5443355   0.3810345  -0.5987717), wk =   0.0035556
        k(   16) = (  -0.4082516  -0.5715527   0.7348556), wk =   0.0035556
        k(   17) = (  -0.3402097  -0.5035107   0.6395965), wk =   0.0035556
        k(   18) = (  -0.2721678  -0.4354688   0.5443374), wk =   0.0035556
        k(   19) = (  -0.2041258  -0.3674268   0.4490783), wk =   0.0035556
        k(   20) = (  -0.1360839  -0.2993849   0.3538192), wk =   0.0035556
        k(   21) = (  -0.0680419  -0.2313430   0.2585601), wk =   0.0035556
        k(   22) = (   0.0000000  -0.1633010   0.1633010), wk =   0.0017778
        k(   23) = (   0.2721678  -0.0544343  -0.0544343), wk =   0.0017778
        k(   24) = (   0.3402097   0.0136076  -0.1496934), wk =   0.0035556
        k(   25) = (   0.4082516   0.0816496  -0.2449525), wk =   0.0035556
        k(   26) = (   0.4762936   0.1496915  -0.3402116), wk =   0.0035556
        k(   27) = (   0.5443355   0.2177334  -0.4354707), wk =   0.0035556
        k(   28) = (   0.6123774   0.2857754  -0.5307298), wk =   0.0035556
        k(   29) = (  -0.3402097  -0.6668118   0.8028975), wk =   0.0035556
        k(   30) = (  -0.2721678  -0.5987698   0.7076384), wk =   0.0035556
        k(   31) = (  -0.2041258  -0.5307279   0.6123793), wk =   0.0035556
        k(   32) = (  -0.1360839  -0.4626859   0.5171203), wk =   0.0035556
        k(   33) = (  -0.0680419  -0.3946440   0.4218612), wk =   0.0035556
        k(   34) = (   0.0000000  -0.3266021   0.3266021), wk =   0.0017778
        k(   35) = (   0.4082516  -0.0816515  -0.0816515), wk =   0.0017778
        k(   36) = (   0.4762936  -0.0136095  -0.1769106), wk =   0.0035556
        k(   37) = (   0.5443355   0.0544324  -0.2721697), wk =   0.0035556
        k(   38) = (   0.6123774   0.1224743  -0.3674287), wk =   0.0035556
        k(   39) = (   0.6804194   0.1905163  -0.4626878), wk =   0.0035556
        k(   40) = (  -0.2721678  -0.7620709   0.8709395), wk =   0.0035556
        k(   41) = (  -0.2041258  -0.6940289   0.7756804), wk =   0.0035556
        k(   42) = (  -0.1360839  -0.6259870   0.6804213), wk =   0.0035556
        k(   43) = (  -0.0680419  -0.5579450   0.5851622), wk =   0.0035556
        k(   44) = (   0.0000000  -0.4899031   0.4899031), wk =   0.0017778
        k(   45) = (   0.5443355  -0.1088686  -0.1088686), wk =   0.0017778
        k(   46) = (   0.6123774  -0.0408267  -0.2041277), wk =   0.0035556
        k(   47) = (   0.6804194   0.0272153  -0.2993868), wk =   0.0035556
        k(   48) = (   0.7484613   0.0952572  -0.3946459), wk =   0.0035556
        k(   49) = (  -0.2041258  -0.8573299   0.9389814), wk =   0.0035556
        k(   50) = (  -0.1360839  -0.7892880   0.8437223), wk =   0.0035556
        k(   51) = (  -0.0680419  -0.7212461   0.7484632), wk =   0.0035556
        k(   52) = (  -0.0000000  -0.6532041   0.6532041), wk =   0.0017778
        k(   53) = (   0.6804194  -0.1360858  -0.1360858), wk =   0.0017778
        k(   54) = (   0.7484613  -0.0680438  -0.2313449), wk =   0.0035556
        k(   55) = (   0.8165033  -0.0000019  -0.3266040), wk =   0.0035556
        k(   56) = (  -0.1360839  -0.9525890   1.0070233), wk =   0.0035556
        k(   57) = (  -0.0680419  -0.8845471   0.9117643), wk =   0.0035556
        k(   58) = (  -0.0000000  -0.8165052   0.8165052), wk =   0.0017778
        k(   59) = (   0.8165033  -0.1633029  -0.1633029), wk =   0.0017778
        k(   60) = (   0.8845452  -0.0952610  -0.2585620), wk =   0.0035556
        k(   61) = (  -0.0680419  -1.0478481   1.0750653), wk =   0.0035556
        k(   62) = (   0.0000000  -0.9798062   0.9798062), wk =   0.0017778
        k(   63) = (   0.9525871  -0.1905201  -0.1905201), wk =   0.0017778
        k(   64) = (   0.0000000  -1.1431072   1.1431072), wk =   0.0017778
        k(   65) = (   0.0408248   0.0408248   0.0408248), wk =   0.0005926
        k(   66) = (   0.1088667   0.1088667  -0.0544343), wk =   0.0017778
        k(   67) = (   0.1769087   0.1769087  -0.1496934), wk =   0.0017778
        k(   68) = (   0.2449506   0.2449506  -0.2449525), wk =   0.0017778
        k(   69) = (   0.3129925   0.3129925  -0.3402116), wk =   0.0017778
        k(   70) = (   0.3810345   0.3810345  -0.4354707), wk =   0.0017778
        k(   71) = (   0.4490764   0.4490764  -0.5307298), wk =   0.0017778
        k(   72) = (  -0.5035107  -0.5035107   0.8028975), wk =   0.0017778
        k(   73) = (  -0.4354688  -0.4354688   0.7076384), wk =   0.0017778
        k(   74) = (  -0.3674268  -0.3674268   0.6123793), wk =   0.0017778
        k(   75) = (  -0.2993849  -0.2993849   0.5171203), wk =   0.0017778
        k(   76) = (  -0.2313430  -0.2313430   0.4218612), wk =   0.0017778
        k(   77) = (  -0.1633010  -0.1633010   0.3266021), wk =   0.0017778
        k(   78) = (  -0.0952591  -0.0952591   0.2313430), wk =   0.0017778
        k(   79) = (   0.1769087   0.0136076   0.0136076), wk =   0.0017778
        k(   80) = (   0.2449506   0.0816496  -0.0816515), wk =   0.0035556
        k(   81) = (   0.3129925   0.1496915  -0.1769106), wk =   0.0035556
        k(   82) = (   0.3810345   0.2177334  -0.2721697), wk =   0.0035556
        k(   83) = (   0.4490764   0.2857754  -0.3674287), wk =   0.0035556
        k(   84) = (   0.5171184   0.3538173  -0.4626878), wk =   0.0035556
        k(   85) = (  -0.4354688  -0.5987698   0.8709395), wk =   0.0035556
        k(   86) = (  -0.3674268  -0.5307279   0.7756804), wk =   0.0035556
        k(   87) = (  -0.2993849  -0.4626859   0.6804213), wk =   0.0035556
        k(   88) = (  -0.2313430  -0.3946440   0.5851622), wk =   0.0035556
        k(   89) = (  -0.1633010  -0.3266021   0.4899031), wk =   0.0035556
        k(   90) = (  -0.0952591  -0.2585601   0.3946440), wk =   0.0035556
        k(   91) = (  -0.0272172  -0.1905182   0.2993849), wk =   0.0035556
        k(   92) = (   0.3129925  -0.0136095  -0.0136095), wk =   0.0017778
        k(   93) = (   0.3810345   0.0544324  -0.1088686), wk =   0.0035556
        k(   94) = (   0.4490764   0.1224743  -0.2041277), wk =   0.0035556
        k(   95) = (   0.5171184   0.1905163  -0.2993868), wk =   0.0035556
        k(   96) = (   0.5851603   0.2585582  -0.3946459), wk =   0.0035556
        k(   97) = (  -0.3674268  -0.6940289   0.9389814), wk =   0.0035556
        k(   98) = (  -0.2993849  -0.6259870   0.8437223), wk =   0.0035556
        k(   99) = (  -0.2313430  -0.5579450   0.7484632), wk =   0.0035556
        k(  100) = (  -0.1633010  -0.4899031   0.6532041), wk =   0.0035556
        k(  101) = (  -0.0952591  -0.4218612   0.5579450), wk =   0.0035556
        k(  102) = (  -0.0272172  -0.3538192   0.4626859), wk =   0.0035556
        k(  103) = (   0.0408248  -0.2857773   0.3674268), wk =   0.0035556
        k(  104) = (   0.4490764  -0.0408267  -0.0408267), wk =   0.0017778
        k(  105) = (   0.5171184   0.0272153  -0.1360858), wk =   0.0035556
        k(  106) = (   0.5851603   0.0952572  -0.2313449), wk =   0.0035556
        k(  107) = (   0.6532022   0.1632991  -0.3266040), wk =   0.0035556
        k(  108) = (  -0.2993849  -0.7892880   1.0070233), wk =   0.0035556
        k(  109) = (  -0.2313430  -0.7212461   0.9117643), wk =   0.0035556
        k(  110) = (  -0.1633010  -0.6532041   0.8165052), wk =   0.0035556
        k(  111) = (  -0.0952591  -0.5851622   0.7212461), wk =   0.0035556
        k(  112) = (  -0.0272172  -0.5171203   0.6259870), wk =   0.0035556
        k(  113) = (   0.0408248  -0.4490783   0.5307279), wk =   0.0035556
        k(  114) = (   0.1088667  -0.3810364   0.4354688), wk =   0.0035556
        k(  115) = (   0.5851603  -0.0680438  -0.0680438), wk =   0.0017778
        k(  116) = (   0.6532022  -0.0000019  -0.1633029), wk =   0.0035556
        k(  117) = (   0.7212442   0.0680400  -0.2585620), wk =   0.0035556
        k(  118) = (  -0.2313430  -0.8845471   1.0750653), wk =   0.0035556
        k(  119) = (  -0.1633010  -0.8165052   0.9798062), wk =   0.0035556
        k(  120) = (  -0.0952591  -0.7484632   0.8845471), wk =   0.0035556
        k(  121) = (  -0.0272172  -0.6804213   0.7892880), wk =   0.0035556
        k(  122) = (   0.0408248  -0.6123793   0.6940289), wk =   0.0035556
        k(  123) = (   0.1088667  -0.5443374   0.5987698), wk =   0.0035556
        k(  124) = (   0.1769087  -0.4762955   0.5035107), wk =   0.0035556
        k(  125) = (   0.7212442  -0.0952610  -0.0952610), wk =   0.0017778
        k(  126) = (   0.7892861  -0.0272191  -0.1905201), wk =   0.0035556
        k(  127) = (  -0.1633010  -0.9798062   1.1431072), wk =   0.0035556
        k(  128) = (  -0.0952591  -0.9117643   1.0478481), wk =   0.0035556
        k(  129) = (  -0.0272172  -0.8437223   0.9525890), wk =   0.0035556
        k(  130) = (   0.0408248  -0.7756804   0.8573299), wk =   0.0035556
        k(  131) = (   0.1088667  -0.7076384   0.7620709), wk =   0.0035556
        k(  132) = (   0.1769087  -0.6395965   0.6668118), wk =   0.0035556
        k(  133) = (   0.2449506  -0.5715546   0.5715527), wk =   0.0035556
        k(  134) = (   0.8573280  -0.1224781  -0.1224781), wk =   0.0017778
        k(  135) = (  -0.0952591  -1.0750653   1.2111492), wk =   0.0035556
        k(  136) = (  -0.0272172  -1.0070233   1.1158901), wk =   0.0035556
        k(  137) = (   0.0408248  -0.9389814   1.0206310), wk =   0.0035556
        k(  138) = (   0.1088667  -0.8709395   0.9253719), wk =   0.0035556
        k(  139) = (   0.1769087  -0.8028975   0.8301128), wk =   0.0035556
        k(  140) = (   0.2449506  -0.7348556   0.7348537), wk =   0.0035556
        k(  141) = (   0.3129925  -0.6668137   0.6395946), wk =   0.0035556
        k(  142) = (  -1.0478462   0.2585620   0.2585620), wk =   0.0017778
        k(  143) = (  -0.9798043   0.3266040   0.1633029), wk =   0.0035556
        k(  144) = (  -0.9117624   0.3946459   0.0680438), wk =   0.0035556
        k(  145) = (  -0.8437204   0.4626878  -0.0272153), wk =   0.0035556
        k(  146) = (  -0.7756785   0.5307298  -0.1224743), wk =   0.0035556
        k(  147) = (  -0.7076365   0.5987717  -0.2177334), wk =   0.0035556
        k(  148) = (  -0.9117624   0.2313449   0.2313449), wk =   0.0017778
        k(  149) = (  -0.8437204   0.2993868   0.1360858), wk =   0.0035556
        k(  150) = (  -0.7756785   0.3674287   0.0408267), wk =   0.0035556
        k(  151) = (  -0.7076365   0.4354707  -0.0544324), wk =   0.0035556
        k(  152) = (  -0.6395946   0.5035126  -0.1496915), wk =   0.0035556
        k(  153) = (  -0.7756785   0.2041277   0.2041277), wk =   0.0017778
        k(  154) = (  -0.7076365   0.2721697   0.1088686), wk =   0.0035556
        k(  155) = (  -0.6395946   0.3402116   0.0136095), wk =   0.0035556
        k(  156) = (  -0.5715527   0.4082535  -0.0816496), wk =   0.0035556
        k(  157) = (  -0.6395946   0.1769106   0.1769106), wk =   0.0017778
        k(  158) = (  -0.5715527   0.2449525   0.0816515), wk =   0.0035556
        k(  159) = (  -0.5035107   0.3129944  -0.0136076), wk =   0.0035556
        k(  160) = (  -0.5035107   0.1496934   0.1496934), wk =   0.0017778
        k(  161) = (  -0.4354688   0.2177353   0.0544343), wk =   0.0035556
        k(  162) = (  -0.3674268   0.1224762   0.1224762), wk =   0.0017778
        k(  163) = (   0.0816496   0.0816496   0.0816496), wk =   0.0005926
        k(  164) = (   0.1496915   0.1496915  -0.0136095), wk =   0.0017778
        k(  165) = (   0.2177334   0.2177334  -0.1088686), wk =   0.0017778
        k(  166) = (   0.2857754   0.2857754  -0.2041277), wk =   0.0017778
        k(  167) = (   0.3538173   0.3538173  -0.2993868), wk =   0.0017778
        k(  168) = (   0.4218593   0.4218593  -0.3946459), wk =   0.0017778
        k(  169) = (  -0.5307279  -0.5307279   0.9389814), wk =   0.0017778
        k(  170) = (  -0.4626859  -0.4626859   0.8437223), wk =   0.0017778
        k(  171) = (  -0.3946440  -0.3946440   0.7484632), wk =   0.0017778
        k(  172) = (  -0.3266021  -0.3266021   0.6532041), wk =   0.0017778
        k(  173) = (  -0.2585601  -0.2585601   0.5579450), wk =   0.0017778
        k(  174) = (  -0.1905182  -0.1905182   0.4626859), wk =   0.0017778
        k(  175) = (   0.2177334   0.0544324   0.0544324), wk =   0.0017778
        k(  176) = (   0.2857754   0.1224743  -0.0408267), wk =   0.0035556
        k(  177) = (   0.3538173   0.1905163  -0.1360858), wk =   0.0035556
        k(  178) = (   0.4218593   0.2585582  -0.2313449), wk =   0.0035556
        k(  179) = (   0.4899012   0.3266002  -0.3266040), wk =   0.0035556
        k(  180) = (  -0.4626859  -0.6259870   1.0070233), wk =   0.0035556
        k(  181) = (  -0.3946440  -0.5579450   0.9117643), wk =   0.0035556
        k(  182) = (  -0.3266021  -0.4899031   0.8165052), wk =   0.0035556
        k(  183) = (  -0.2585601  -0.4218612   0.7212461), wk =   0.0035556
        k(  184) = (  -0.1905182  -0.3538192   0.6259870), wk =   0.0035556
        k(  185) = (  -0.1224762  -0.2857773   0.5307279), wk =   0.0035556
        k(  186) = (   0.3538173   0.0272153   0.0272153), wk =   0.0017778
        k(  187) = (   0.4218593   0.0952572  -0.0680438), wk =   0.0035556
        k(  188) = (   0.4899012   0.1632991  -0.1633029), wk =   0.0035556
        k(  189) = (   0.5579431   0.2313411  -0.2585620), wk =   0.0035556
        k(  190) = (  -0.3946440  -0.7212461   1.0750653), wk =   0.0035556
        k(  191) = (  -0.3266021  -0.6532041   0.9798062), wk =   0.0035556
        k(  192) = (  -0.2585601  -0.5851622   0.8845471), wk =   0.0035556
        k(  193) = (  -0.1905182  -0.5171203   0.7892880), wk =   0.0035556
        k(  194) = (  -0.1224762  -0.4490783   0.6940289), wk =   0.0035556
        k(  195) = (  -0.0544343  -0.3810364   0.5987698), wk =   0.0035556
        k(  196) = (   0.4899012  -0.0000019  -0.0000019), wk =   0.0017778
        k(  197) = (   0.5579431   0.0680400  -0.0952610), wk =   0.0035556
        k(  198) = (   0.6259851   0.1360820  -0.1905201), wk =   0.0035556
        k(  199) = (  -0.3266021  -0.8165052   1.1431072), wk =   0.0035556
        k(  200) = (  -0.2585601  -0.7484632   1.0478481), wk =   0.0035556
        k(  201) = (  -0.1905182  -0.6804213   0.9525890), wk =   0.0035556
        k(  202) = (  -0.1224762  -0.6123793   0.8573299), wk =   0.0035556
        k(  203) = (  -0.0544343  -0.5443374   0.7620709), wk =   0.0035556
        k(  204) = (   0.0136076  -0.4762955   0.6668118), wk =   0.0035556
        k(  205) = (   0.6259851  -0.0272191  -0.0272191), wk =   0.0017778
        k(  206) = (   0.6940270   0.0408229  -0.1224781), wk =   0.0035556
        k(  207) = (  -0.2585601  -0.9117643   1.2111492), wk =   0.0035556
        k(  208) = (  -0.1905182  -0.8437223   1.1158901), wk =   0.0035556
        k(  209) = (  -0.1224762  -0.7756804   1.0206310), wk =   0.0035556
        k(  210) = (  -0.0544343  -0.7076384   0.9253719), wk =   0.0035556
        k(  211) = (   0.0136076  -0.6395965   0.8301128), wk =   0.0035556
        k(  212) = (   0.0816496  -0.5715546   0.7348537), wk =   0.0035556
        k(  213) = (   0.7620690  -0.0544362  -0.0544362), wk =   0.0017778
        k(  214) = (  -0.1905182  -1.0070233   1.2791911), wk =   0.0035556
        k(  215) = (  -0.1224762  -0.9389814   1.1839320), wk =   0.0035556
        k(  216) = (  -0.0544343  -0.8709395   1.0886729), wk =   0.0035556
        k(  217) = (   0.0136076  -0.8028975   0.9934138), wk =   0.0035556
        k(  218) = (   0.0816496  -0.7348556   0.8981547), wk =   0.0035556
        k(  219) = (   0.1496915  -0.6668137   0.8028956), wk =   0.0035556
        k(  220) = (  -1.1431053   0.3266040   0.3266040), wk =   0.0017778
        k(  221) = (  -1.0750634   0.3946459   0.2313449), wk =   0.0035556
        k(  222) = (  -1.0070214   0.4626878   0.1360858), wk =   0.0035556
        k(  223) = (  -0.9389795   0.5307298   0.0408267), wk =   0.0035556
        k(  224) = (  -0.8709376   0.5987717  -0.0544324), wk =   0.0035556
        k(  225) = (  -1.0070214   0.2993868   0.2993868), wk =   0.0017778
        k(  226) = (  -0.9389795   0.3674287   0.2041277), wk =   0.0035556
        k(  227) = (  -0.8709376   0.4354707   0.1088686), wk =   0.0035556
        k(  228) = (  -0.8028956   0.5035126   0.0136095), wk =   0.0035556
        k(  229) = (  -0.8709376   0.2721697   0.2721697), wk =   0.0017778
        k(  230) = (  -0.8028956   0.3402116   0.1769106), wk =   0.0035556
        k(  231) = (  -0.7348537   0.4082535   0.0816515), wk =   0.0035556
        k(  232) = (  -0.7348537   0.2449525   0.2449525), wk =   0.0017778
        k(  233) = (  -0.6668118   0.3129944   0.1496934), wk =   0.0035556
        k(  234) = (  -0.5987698   0.2177353   0.2177353), wk =   0.0017778
        k(  235) = (   0.1224743   0.1224743   0.1224743), wk =   0.0005926
        k(  236) = (   0.1905163   0.1905163   0.0272153), wk =   0.0017778
        k(  237) = (   0.2585582   0.2585582  -0.0680438), wk =   0.0017778
        k(  238) = (   0.3266002   0.3266002  -0.1633029), wk =   0.0017778
        k(  239) = (   0.3946421   0.3946421  -0.2585620), wk =   0.0017778
        k(  240) = (  -0.5579450  -0.5579450   1.0750653), wk =   0.0017778
        k(  241) = (  -0.4899031  -0.4899031   0.9798062), wk =   0.0017778
        k(  242) = (  -0.4218612  -0.4218612   0.8845471), wk =   0.0017778
        k(  243) = (  -0.3538192  -0.3538192   0.7892880), wk =   0.0017778
        k(  244) = (  -0.2857773  -0.2857773   0.6940289), wk =   0.0017778
        k(  245) = (   0.2585582   0.0952572   0.0952572), wk =   0.0017778
        k(  246) = (   0.3266002   0.1632991  -0.0000019), wk =   0.0035556
        k(  247) = (   0.3946421   0.2313411  -0.0952610), wk =   0.0035556
        k(  248) = (   0.4626840   0.2993830  -0.1905201), wk =   0.0035556
        k(  249) = (  -0.4899031  -0.6532041   1.1431072), wk =   0.0035556
        k(  250) = (  -0.4218612  -0.5851622   1.0478481), wk =   0.0035556
        k(  251) = (  -0.3538192  -0.5171203   0.9525890), wk =   0.0035556
        k(  252) = (  -0.2857773  -0.4490783   0.8573299), wk =   0.0035556
        k(  253) = (  -0.2177353  -0.3810364   0.7620709), wk =   0.0035556
        k(  254) = (   0.3946421   0.0680400   0.0680400), wk =   0.0017778
        k(  255) = (   0.4626840   0.1360820  -0.0272191), wk =   0.0035556
        k(  256) = (   0.5307260   0.2041239  -0.1224781), wk =   0.0035556
        k(  257) = (  -0.4218612  -0.7484632   1.2111492), wk =   0.0035556
        k(  258) = (  -0.3538192  -0.6804213   1.1158901), wk =   0.0035556
        k(  259) = (  -0.2857773  -0.6123793   1.0206310), wk =   0.0035556
        k(  260) = (  -0.2177353  -0.5443374   0.9253719), wk =   0.0035556
        k(  261) = (  -0.1496934  -0.4762955   0.8301128), wk =   0.0035556
        k(  262) = (   0.5307260   0.0408229   0.0408229), wk =   0.0017778
        k(  263) = (   0.5987679   0.1088648  -0.0544362), wk =   0.0035556
        k(  264) = (  -0.3538192  -0.8437223   1.2791911), wk =   0.0035556
        k(  265) = (  -0.2857773  -0.7756804   1.1839320), wk =   0.0035556
        k(  266) = (  -0.2177353  -0.7076384   1.0886729), wk =   0.0035556
        k(  267) = (  -0.1496934  -0.6395965   0.9934138), wk =   0.0035556
        k(  268) = (  -0.0816515  -0.5715546   0.8981547), wk =   0.0035556
        k(  269) = (   0.6668099   0.0136057   0.0136057), wk =   0.0017778
        k(  270) = (  -0.2857773  -0.9389814   1.3472330), wk =   0.0035556
        k(  271) = (  -0.2177353  -0.8709395   1.2519739), wk =   0.0035556
        k(  272) = (  -0.1496934  -0.8028975   1.1567149), wk =   0.0035556
        k(  273) = (  -0.0816515  -0.7348556   1.0614558), wk =   0.0035556
        k(  274) = (  -0.0136095  -0.6668137   0.9661967), wk =   0.0035556
        k(  275) = (  -1.2383644   0.3946459   0.3946459), wk =   0.0017778
        k(  276) = (  -1.1703225   0.4626878   0.2993868), wk =   0.0035556
        k(  277) = (  -1.1022805   0.5307298   0.2041277), wk =   0.0035556
        k(  278) = (  -1.0342386   0.5987717   0.1088686), wk =   0.0035556
        k(  279) = (  -1.1022805   0.3674287   0.3674287), wk =   0.0017778
        k(  280) = (  -1.0342386   0.4354707   0.2721697), wk =   0.0035556
        k(  281) = (  -0.9661967   0.5035126   0.1769106), wk =   0.0035556
        k(  282) = (  -0.9661967   0.3402116   0.3402116), wk =   0.0017778
        k(  283) = (  -0.8981547   0.4082535   0.2449525), wk =   0.0035556
        k(  284) = (  -0.8301128   0.3129944   0.3129944), wk =   0.0017778
        k(  285) = (   0.1632991   0.1632991   0.1632991), wk =   0.0005926
        k(  286) = (   0.2313411   0.2313411   0.0680400), wk =   0.0017778
        k(  287) = (   0.2993830   0.2993830  -0.0272191), wk =   0.0017778
        k(  288) = (   0.3674249   0.3674249  -0.1224781), wk =   0.0017778
        k(  289) = (  -0.5851622  -0.5851622   1.2111492), wk =   0.0017778
        k(  290) = (  -0.5171203  -0.5171203   1.1158901), wk =   0.0017778
        k(  291) = (  -0.4490783  -0.4490783   1.0206310), wk =   0.0017778
        k(  292) = (  -0.3810364  -0.3810364   0.9253719), wk =   0.0017778
        k(  293) = (   0.2993830   0.1360820   0.1360820), wk =   0.0017778
        k(  294) = (   0.3674249   0.2041239   0.0408229), wk =   0.0035556
        k(  295) = (   0.4354669   0.2721659  -0.0544362), wk =   0.0035556
        k(  296) = (  -0.5171203  -0.6804213   1.2791911), wk =   0.0035556
        k(  297) = (  -0.4490783  -0.6123793   1.1839320), wk =   0.0035556
        k(  298) = (  -0.3810364  -0.5443374   1.0886729), wk =   0.0035556
        k(  299) = (  -0.3129944  -0.4762955   0.9934138), wk =   0.0035556
        k(  300) = (   0.4354669   0.1088648   0.1088648), wk =   0.0017778
        k(  301) = (   0.5035088   0.1769068   0.0136057), wk =   0.0035556
        k(  302) = (  -0.4490783  -0.7756804   1.3472330), wk =   0.0035556
        k(  303) = (  -0.3810364  -0.7076384   1.2519739), wk =   0.0035556
        k(  304) = (  -0.3129944  -0.6395965   1.1567149), wk =   0.0035556
        k(  305) = (  -0.2449525  -0.5715546   1.0614558), wk =   0.0035556
        k(  306) = (   0.5715508   0.0816477   0.0816477), wk =   0.0017778
        k(  307) = (  -0.3810364  -0.8709395   1.4152750), wk =   0.0035556
        k(  308) = (  -0.3129944  -0.8028975   1.3200159), wk =   0.0035556
        k(  309) = (  -0.2449525  -0.7348556   1.2247568), wk =   0.0035556
        k(  310) = (  -0.1769106  -0.6668137   1.1294977), wk =   0.0035556
        k(  311) = (  -1.3336235   0.4626878   0.4626878), wk =   0.0017778
        k(  312) = (  -1.2655816   0.5307298   0.3674287), wk =   0.0035556
        k(  313) = (  -1.1975396   0.5987717   0.2721697), wk =   0.0035556
        k(  314) = (  -1.1975396   0.4354707   0.4354707), wk =   0.0017778
        k(  315) = (  -1.1294977   0.5035126   0.3402116), wk =   0.0035556
        k(  316) = (  -1.0614558   0.4082535   0.4082535), wk =   0.0017778
        k(  317) = (   0.2041239   0.2041239   0.2041239), wk =   0.0005926
        k(  318) = (   0.2721659   0.2721659   0.1088648), wk =   0.0017778
        k(  319) = (   0.3402078   0.3402078   0.0136057), wk =   0.0017778
        k(  320) = (  -0.6123793  -0.6123793   1.3472330), wk =   0.0017778
        k(  321) = (  -0.5443374  -0.5443374   1.2519739), wk =   0.0017778
        k(  322) = (  -0.4762955  -0.4762955   1.1567149), wk =   0.0017778
        k(  323) = (   0.3402078   0.1769068   0.1769068), wk =   0.0017778
        k(  324) = (   0.4082497   0.2449487   0.0816477), wk =   0.0035556
        k(  325) = (  -0.5443374  -0.7076384   1.4152750), wk =   0.0035556
        k(  326) = (  -0.4762955  -0.6395965   1.3200159), wk =   0.0035556
        k(  327) = (  -0.4082535  -0.5715546   1.2247568), wk =   0.0035556
        k(  328) = (   0.4762917   0.1496896   0.1496896), wk =   0.0017778
        k(  329) = (  -0.4762955  -0.8028975   1.4833169), wk =   0.0035556
        k(  330) = (  -0.4082535  -0.7348556   1.3880578), wk =   0.0035556
        k(  331) = (  -0.3402116  -0.6668137   1.2927987), wk =   0.0035556
        k(  332) = (  -1.4288826   0.5307298   0.5307298), wk =   0.0017778
        k(  333) = (  -1.3608407   0.5987717   0.4354707), wk =   0.0035556
        k(  334) = (  -1.2927987   0.5035126   0.5035126), wk =   0.0017778
        k(  335) = (   0.2449487   0.2449487   0.2449487), wk =   0.0005926
        k(  336) = (   0.3129906   0.3129906   0.1496896), wk =   0.0017778
        k(  337) = (  -0.6395965  -0.6395965   1.4833169), wk =   0.0017778
        k(  338) = (  -0.5715546  -0.5715546   1.3880578), wk =   0.0017778
        k(  339) = (   0.3810326   0.2177315   0.2177315), wk =   0.0017778
        k(  340) = (  -0.5715546  -0.7348556   1.5513589), wk =   0.0035556
        k(  341) = (  -0.5035126  -0.6668137   1.4560998), wk =   0.0035556
        k(  342) = (  -1.5241417   0.5987717   0.5987717), wk =   0.0017778
        k(  343) = (   0.2857735   0.2857735   0.2857735), wk =   0.0005926
        k(  344) = (  -0.6668137  -0.6668137   1.6194008), wk =   0.0017778

                       cryst. coord.
        k(    1) = (   0.0000000   0.0000000   0.0000000), wk =   0.0002963
        k(    2) = (  -0.0000000  -0.0000000   0.0666667), wk =   0.0017778
        k(    3) = (  -0.0000000  -0.0000000   0.1333333), wk =   0.0017778
        k(    4) = (  -0.0000000  -0.0000000   0.2000000), wk =   0.0017778
        k(    5) = (  -0.0000000  -0.0000000   0.2666667), wk =   0.0017778
        k(    6) = (  -0.0000000  -0.0000000   0.3333333), wk =   0.0017778
        k(    7) = (  -0.0000000  -0.0000000   0.4000000), wk =   0.0017778
        k(    8) = (  -0.0000000  -0.0000000   0.4666667), wk =   0.0017778
        k(    9) = (  -0.0000000   0.0666667   0.0666667), wk =   0.0017778
        k(   10) = (  -0.0000000   0.0666667   0.1333333), wk =   0.0035556
        k(   11) = (  -0.0000000   0.0666667   0.2000000), wk =   0.0035556
        k(   12) = (  -0.0000000   0.0666667   0.2666667), wk =   0.0035556
        k(   13) = (  -0.0000000   0.0666667   0.3333333), wk =   0.0035556
        k(   14) = (  -0.0000000   0.0666667   0.4000000), wk =   0.0035556
        k(   15) = (  -0.0000000   0.0666667   0.4666667), wk =   0.0035556
        k(   16) = (   0.0000000   0.0666667  -0.4666667), wk =   0.0035556
        k(   17) = (   0.0000000   0.0666667  -0.4000000), wk =   0.0035556
        k(   18) = (   0.0000000   0.0666667  -0.3333333), wk =   0.0035556
        k(   19) = (   0.0000000   0.0666667  -0.2666667), wk =   0.0035556
        k(   20) = (  -0.0000000   0.0666667  -0.2000000), wk =   0.0035556
        k(   21) = (  -0.0000000   0.0666667  -0.1333333), wk =   0.0035556
        k(   22) = (   0.0000000   0.0666667  -0.0666667), wk =   0.0017778
        k(   23) = (  -0.0000000   0.1333333   0.1333333), wk =   0.0017778
        k(   24) = (  -0.0000000   0.1333333   0.2000000), wk =   0.0035556
        k(   25) = (  -0.0000000   0.1333333   0.2666667), wk =   0.0035556
        k(   26) = (  -0.0000000   0.1333333   0.3333333), wk =   0.0035556
        k(   27) = (  -0.0000000   0.1333333   0.4000000), wk =   0.0035556
        k(   28) = (  -0.0000000   0.1333333   0.4666667), wk =   0.0035556
        k(   29) = (   0.0000000   0.1333333  -0.4666667), wk =   0.0035556
        k(   30) = (   0.0000000   0.1333333  -0.4000000), wk =   0.0035556
        k(   31) = (   0.0000000   0.1333333  -0.3333333), wk =   0.0035556
        k(   32) = (   0.0000000   0.1333333  -0.2666667), wk =   0.0035556
        k(   33) = (   0.0000000   0.1333333  -0.2000000), wk =   0.0035556
        k(   34) = (   0.0000000   0.1333333  -0.1333333), wk =   0.0017778
        k(   35) = (  -0.0000000   0.2000000   0.2000000), wk =   0.0017778
        k(   36) = (  -0.0000000   0.2000000   0.2666667), wk =   0.0035556
        k(   37) = (  -0.0000000   0.2000000   0.3333333), wk =   0.0035556
        k(   38) = (  -0.0000000   0.2000000   0.4000000), wk =   0.0035556
        k(   39) = (  -0.0000000   0.2000000   0.4666667), wk =   0.0035556
        k(   40) = (   0.0000000   0.2000000  -0.4666667), wk =   0.0035556
        k(   41) = (  -0.0000000   0.2000000  -0.4000000), wk =   0.0035556
        k(   42) = (   0.0000000   0.2000000  -0.3333333), wk =   0.0035556
        k(   43) = (   0.0000000   0.2000000  -0.2666667), wk =   0.0035556
        k(   44) = (  -0.0000000   0.2000000  -0.2000000), wk =   0.0017778
        k(   45) = (  -0.0000000   0.2666667   0.2666667), wk =   0.0017778
        k(   46) = (  -0.0000000   0.2666667   0.3333333), wk =   0.0035556
        k(   47) = (  -0.0000000   0.2666667   0.4000000), wk =   0.0035556
        k(   48) = (  -0.0000000   0.2666667   0.4666667), wk =   0.0035556
        k(   49) = (   0.0000000   0.2666667  -0.4666667), wk =   0.0035556
        k(   50) = (   0.0000000   0.2666667  -0.4000000), wk =   0.0035556
        k(   51) = (   0.0000000   0.2666667  -0.3333333), wk =   0.0035556
        k(   52) = (   0.0000000   0.2666667  -0.2666667), wk =   0.0017778
        k(   53) = (  -0.0000000   0.3333333   0.3333333), wk =   0.0017778
        k(   54) = (  -0.0000000   0.3333333   0.4000000), wk =   0.0035556
        k(   55) = (  -0.0000000   0.3333333   0.4666667), wk =   0.0035556
        k(   56) = (   0.0000000   0.3333333  -0.4666667), wk =   0.0035556
        k(   57) = (   0.0000000   0.3333333  -0.4000000), wk =   0.0035556
        k(   58) = (   0.0000000   0.3333333  -0.3333333), wk =   0.0017778
        k(   59) = (  -0.0000000   0.4000000   0.4000000), wk =   0.0017778
        k(   60) = (  -0.0000000   0.4000000   0.4666667), wk =   0.0035556
        k(   61) = (   0.0000000   0.4000000  -0.4666667), wk =   0.0035556
        k(   62) = (   0.0000000   0.4000000  -0.4000000), wk =   0.0017778
        k(   63) = (  -0.0000000   0.4666667   0.4666667), wk =   0.0017778
        k(   64) = (   0.0000000   0.4666667  -0.4666667), wk =   0.0017778
        k(   65) = (   0.0666667   0.0666667   0.0666667), wk =   0.0005926
        k(   66) = (   0.0666667   0.0666667   0.1333333), wk =   0.0017778
        k(   67) = (   0.0666667   0.0666667   0.2000000), wk =   0.0017778
        k(   68) = (   0.0666667   0.0666667   0.2666667), wk =   0.0017778
        k(   69) = (   0.0666667   0.0666667   0.3333333), wk =   0.0017778
        k(   70) = (   0.0666667   0.0666667   0.4000000), wk =   0.0017778
        k(   71) = (   0.0666667   0.0666667   0.4666667), wk =   0.0017778
        k(   72) = (   0.0666667   0.0666667  -0.4666667), wk =   0.0017778
        k(   73) = (   0.0666667   0.0666667  -0.4000000), wk =   0.0017778
        k(   74) = (   0.0666667   0.0666667  -0.3333333), wk =   0.0017778
        k(   75) = (   0.0666667   0.0666667  -0.2666667), wk =   0.0017778
        k(   76) = (   0.0666667   0.0666667  -0.2000000), wk =   0.0017778
        k(   77) = (   0.0666667   0.0666667  -0.1333333), wk =   0.0017778
        k(   78) = (   0.0666667   0.0666667  -0.0666667), wk =   0.0017778
        k(   79) = (   0.0666667   0.1333333   0.1333333), wk =   0.0017778
        k(   80) = (   0.0666667   0.1333333   0.2000000), wk =   0.0035556
        k(   81) = (   0.0666667   0.1333333   0.2666667), wk =   0.0035556
        k(   82) = (   0.0666667   0.1333333   0.3333333), wk =   0.0035556
        k(   83) = (   0.0666667   0.1333333   0.4000000), wk =   0.0035556
        k(   84) = (   0.0666667   0.1333333   0.4666667), wk =   0.0035556
        k(   85) = (   0.0666667   0.1333333  -0.4666667), wk =   0.0035556
        k(   86) = (   0.0666667   0.1333333  -0.4000000), wk =   0.0035556
        k(   87) = (   0.0666667   0.1333333  -0.3333333), wk =   0.0035556
        k(   88) = (   0.0666667   0.1333333  -0.2666667), wk =   0.0035556
        k(   89) = (   0.0666667   0.1333333  -0.2000000), wk =   0.0035556
        k(   90) = (   0.0666667   0.1333333  -0.1333333), wk =   0.0035556
        k(   91) = (   0.0666667   0.1333333  -0.0666667), wk =   0.0035556
        k(   92) = (   0.0666667   0.2000000   0.2000000), wk =   0.0017778
        k(   93) = (   0.0666667   0.2000000   0.2666667), wk =   0.0035556
        k(   94) = (   0.0666667   0.2000000   0.3333333), wk =   0.0035556
        k(   95) = (   0.0666667   0.2000000   0.4000000), wk =   0.0035556
        k(   96) = (   0.0666667   0.2000000   0.4666667), wk =   0.0035556
        k(   97) = (   0.0666667   0.2000000  -0.4666667), wk =   0.0035556
        k(   98) = (   0.0666667   0.2000000  -0.4000000), wk =   0.0035556
        k(   99) = (   0.0666667   0.2000000  -0.3333333), wk =   0.0035556
        k(  100) = (   0.0666667   0.2000000  -0.2666667), wk =   0.0035556
        k(  101) = (   0.0666667   0.2000000  -0.2000000), wk =   0.0035556
        k(  102) = (   0.0666667   0.2000000  -0.1333333), wk =   0.0035556
        k(  103) = (   0.0666667   0.2000000  -0.0666667), wk =   0.0035556
        k(  104) = (   0.0666667   0.2666667   0.2666667), wk =   0.0017778
        k(  105) = (   0.0666667   0.2666667   0.3333333), wk =   0.0035556
        k(  106) = (   0.0666667   0.2666667   0.4000000), wk =   0.0035556
        k(  107) = (   0.0666667   0.2666667   0.4666667), wk =   0.0035556
        k(  108) = (   0.0666667   0.2666667  -0.4666667), wk =   0.0035556
        k(  109) = (   0.0666667   0.2666667  -0.4000000), wk =   0.0035556
        k(  110) = (   0.0666667   0.2666667  -0.3333333), wk =   0.0035556
        k(  111) = (   0.0666667   0.2666667  -0.2666667), wk =   0.0035556
        k(  112) = (   0.0666667   0.2666667  -0.2000000), wk =   0.0035556
        k(  113) = (   0.0666667   0.2666667  -0.1333333), wk =   0.0035556
        k(  114) = (   0.0666667   0.2666667  -0.0666667), wk =   0.0035556
        k(  115) = (   0.0666667   0.3333333   0.3333333), wk =   0.0017778
        k(  116) = (   0.0666667   0.3333333   0.4000000), wk =   0.0035556
        k(  117) = (   0.0666667   0.3333333   0.4666667), wk =   0.0035556
        k(  118) = (   0.0666667   0.3333333  -0.4666667), wk =   0.0035556
        k(  119) = (   0.0666667   0.3333333  -0.4000000), wk =   0.0035556
        k(  120) = (   0.0666667   0.3333333  -0.3333333), wk =   0.0035556
        k(  121) = (   0.0666667   0.3333333  -0.2666667), wk =   0.0035556
        k(  122) = (   0.0666667   0.3333333  -0.2000000), wk =   0.0035556
        k(  123) = (   0.0666667   0.3333333  -0.1333333), wk =   0.0035556
        k(  124) = (   0.0666667   0.3333333  -0.0666667), wk =   0.0035556
        k(  125) = (   0.0666667   0.4000000   0.4000000), wk =   0.0017778
        k(  126) = (   0.0666667   0.4000000   0.4666667), wk =   0.0035556
        k(  127) = (   0.0666667   0.4000000  -0.4666667), wk =   0.0035556
        k(  128) = (   0.0666667   0.4000000  -0.4000000), wk =   0.0035556
        k(  129) = (   0.0666667   0.4000000  -0.3333333), wk =   0.0035556
        k(  130) = (   0.0666667   0.4000000  -0.2666667), wk =   0.0035556
        k(  131) = (   0.0666667   0.4000000  -0.2000000), wk =   0.0035556
        k(  132) = (   0.0666667   0.4000000  -0.1333333), wk =   0.0035556
        k(  133) = (   0.0666667   0.4000000  -0.0666667), wk =   0.0035556
        k(  134) = (   0.0666667   0.4666667   0.4666667), wk =   0.0017778
        k(  135) = (   0.0666667   0.4666667  -0.4666667), wk =   0.0035556
        k(  136) = (   0.0666667   0.4666667  -0.4000000), wk =   0.0035556
        k(  137) = (   0.0666667   0.4666667  -0.3333333), wk =   0.0035556
        k(  138) = (   0.0666667   0.4666667  -0.2666667), wk =   0.0035556
        k(  139) = (   0.0666667   0.4666667  -0.2000000), wk =   0.0035556
        k(  140) = (   0.0666667   0.4666667  -0.1333333), wk =   0.0035556
        k(  141) = (   0.0666667   0.4666667  -0.0666667), wk =   0.0035556
        k(  142) = (   0.0666667  -0.4666667  -0.4666667), wk =   0.0017778
        k(  143) = (   0.0666667  -0.4666667  -0.4000000), wk =   0.0035556
        k(  144) = (   0.0666667  -0.4666667  -0.3333333), wk =   0.0035556
        k(  145) = (   0.0666667  -0.4666667  -0.2666667), wk =   0.0035556
        k(  146) = (   0.0666667  -0.4666667  -0.2000000), wk =   0.0035556
        k(  147) = (   0.0666667  -0.4666667  -0.1333333), wk =   0.0035556
        k(  148) = (   0.0666667  -0.4000000  -0.4000000), wk =   0.0017778
        k(  149) = (   0.0666667  -0.4000000  -0.3333333), wk =   0.0035556
        k(  150) = (   0.0666667  -0.4000000  -0.2666667), wk =   0.0035556
        k(  151) = (   0.0666667  -0.4000000  -0.2000000), wk =   0.0035556
        k(  152) = (   0.0666667  -0.4000000  -0.1333333), wk =   0.0035556
        k(  153) = (   0.0666667  -0.3333333  -0.3333333), wk =   0.0017778
        k(  154) = (   0.0666667  -0.3333333  -0.2666667), wk =   0.0035556
        k(  155) = (   0.0666667  -0.3333333  -0.2000000), wk =   0.0035556
        k(  156) = (   0.0666667  -0.3333333  -0.1333333), wk =   0.0035556
        k(  157) = (   0.0666667  -0.2666667  -0.2666667), wk =   0.0017778
        k(  158) = (   0.0666667  -0.2666667  -0.2000000), wk =   0.0035556
        k(  159) = (   0.0666667  -0.2666667  -0.1333333), wk =   0.0035556
        k(  160) = (   0.0666667  -0.2000000  -0.2000000), wk =   0.0017778
        k(  161) = (   0.0666667  -0.2000000  -0.1333333), wk =   0.0035556
        k(  162) = (   0.0666667  -0.1333333  -0.1333333), wk =   0.0017778
        k(  163) = (   0.1333333   0.1333333   0.1333333), wk =   0.0005926
        k(  164) = (   0.1333333   0.1333333   0.2000000), wk =   0.0017778
        k(  165) = (   0.1333333   0.1333333   0.2666667), wk =   0.0017778
        k(  166) = (   0.1333333   0.1333333   0.3333333), wk =   0.0017778
        k(  167) = (   0.1333333   0.1333333   0.4000000), wk =   0.0017778
        k(  168) = (   0.1333333   0.1333333   0.4666667), wk =   0.0017778
        k(  169) = (   0.1333333   0.1333333  -0.4666667), wk =   0.0017778
        k(  170) = (   0.1333333   0.1333333  -0.4000000), wk =   0.0017778
        k(  171) = (   0.1333333   0.1333333  -0.3333333), wk =   0.0017778
        k(  172) = (   0.1333333   0.1333333  -0.2666667), wk =   0.0017778
        k(  173) = (   0.1333333   0.1333333  -0.2000000), wk =   0.0017778
        k(  174) = (   0.1333333   0.1333333  -0.1333333), wk =   0.0017778
        k(  175) = (   0.1333333   0.2000000   0.2000000), wk =   0.0017778
        k(  176) = (   0.1333333   0.2000000   0.2666667), wk =   0.0035556
        k(  177) = (   0.1333333   0.2000000   0.3333333), wk =   0.0035556
        k(  178) = (   0.1333333   0.2000000   0.4000000), wk =   0.0035556
        k(  179) = (   0.1333333   0.2000000   0.4666667), wk =   0.0035556
        k(  180) = (   0.1333333   0.2000000  -0.4666667), wk =   0.0035556
        k(  181) = (   0.1333333   0.2000000  -0.4000000), wk =   0.0035556
        k(  182) = (   0.1333333   0.2000000  -0.3333333), wk =   0.0035556
        k(  183) = (   0.1333333   0.2000000  -0.2666667), wk =   0.0035556
        k(  184) = (   0.1333333   0.2000000  -0.2000000), wk =   0.0035556
        k(  185) = (   0.1333333   0.2000000  -0.1333333), wk =   0.0035556
        k(  186) = (   0.1333333   0.2666667   0.2666667), wk =   0.0017778
        k(  187) = (   0.1333333   0.2666667   0.3333333), wk =   0.0035556
        k(  188) = (   0.1333333   0.2666667   0.4000000), wk =   0.0035556
        k(  189) = (   0.1333333   0.2666667   0.4666667), wk =   0.0035556
        k(  190) = (   0.1333333   0.2666667  -0.4666667), wk =   0.0035556
        k(  191) = (   0.1333333   0.2666667  -0.4000000), wk =   0.0035556
        k(  192) = (   0.1333333   0.2666667  -0.3333333), wk =   0.0035556
        k(  193) = (   0.1333333   0.2666667  -0.2666667), wk =   0.0035556
        k(  194) = (   0.1333333   0.2666667  -0.2000000), wk =   0.0035556
        k(  195) = (   0.1333333   0.2666667  -0.1333333), wk =   0.0035556
        k(  196) = (   0.1333333   0.3333333   0.3333333), wk =   0.0017778
        k(  197) = (   0.1333333   0.3333333   0.4000000), wk =   0.0035556
        k(  198) = (   0.1333333   0.3333333   0.4666667), wk =   0.0035556
        k(  199) = (   0.1333333   0.3333333  -0.4666667), wk =   0.0035556
        k(  200) = (   0.1333333   0.3333333  -0.4000000), wk =   0.0035556
        k(  201) = (   0.1333333   0.3333333  -0.3333333), wk =   0.0035556
        k(  202) = (   0.1333333   0.3333333  -0.2666667), wk =   0.0035556
        k(  203) = (   0.1333333   0.3333333  -0.2000000), wk =   0.0035556
        k(  204) = (   0.1333333   0.3333333  -0.1333333), wk =   0.0035556
        k(  205) = (   0.1333333   0.4000000   0.4000000), wk =   0.0017778
        k(  206) = (   0.1333333   0.4000000   0.4666667), wk =   0.0035556
        k(  207) = (   0.1333333   0.4000000  -0.4666667), wk =   0.0035556
        k(  208) = (   0.1333333   0.4000000  -0.4000000), wk =   0.0035556
        k(  209) = (   0.1333333   0.4000000  -0.3333333), wk =   0.0035556
        k(  210) = (   0.1333333   0.4000000  -0.2666667), wk =   0.0035556
        k(  211) = (   0.1333333   0.4000000  -0.2000000), wk =   0.0035556
        k(  212) = (   0.1333333   0.4000000  -0.1333333), wk =   0.0035556
        k(  213) = (   0.1333333   0.4666667   0.4666667), wk =   0.0017778
        k(  214) = (   0.1333333   0.4666667  -0.4666667), wk =   0.0035556
        k(  215) = (   0.1333333   0.4666667  -0.4000000), wk =   0.0035556
        k(  216) = (   0.1333333   0.4666667  -0.3333333), wk =   0.0035556
        k(  217) = (   0.1333333   0.4666667  -0.2666667), wk =   0.0035556
        k(  218) = (   0.1333333   0.4666667  -0.2000000), wk =   0.0035556
        k(  219) = (   0.1333333   0.4666667  -0.1333333), wk =   0.0035556
        k(  220) = (   0.1333333  -0.4666667  -0.4666667), wk =   0.0017778
        k(  221) = (   0.1333333  -0.4666667  -0.4000000), wk =   0.0035556
        k(  222) = (   0.1333333  -0.4666667  -0.3333333), wk =   0.0035556
        k(  223) = (   0.1333333  -0.4666667  -0.2666667), wk =   0.0035556
        k(  224) = (   0.1333333  -0.4666667  -0.2000000), wk =   0.0035556
        k(  225) = (   0.1333333  -0.4000000  -0.4000000), wk =   0.0017778
        k(  226) = (   0.1333333  -0.4000000  -0.3333333), wk =   0.0035556
        k(  227) = (   0.1333333  -0.4000000  -0.2666667), wk =   0.0035556
        k(  228) = (   0.1333333  -0.4000000  -0.2000000), wk =   0.0035556
        k(  229) = (   0.1333333  -0.3333333  -0.3333333), wk =   0.0017778
        k(  230) = (   0.1333333  -0.3333333  -0.2666667), wk =   0.0035556
        k(  231) = (   0.1333333  -0.3333333  -0.2000000), wk =   0.0035556
        k(  232) = (   0.1333333  -0.2666667  -0.2666667), wk =   0.0017778
        k(  233) = (   0.1333333  -0.2666667  -0.2000000), wk =   0.0035556
        k(  234) = (   0.1333333  -0.2000000  -0.2000000), wk =   0.0017778
        k(  235) = (   0.2000000   0.2000000   0.2000000), wk =   0.0005926
        k(  236) = (   0.2000000   0.2000000   0.2666667), wk =   0.0017778
        k(  237) = (   0.2000000   0.2000000   0.3333333), wk =   0.0017778
        k(  238) = (   0.2000000   0.2000000   0.4000000), wk =   0.0017778
        k(  239) = (   0.2000000   0.2000000   0.4666667), wk =   0.0017778
        k(  240) = (   0.2000000   0.2000000  -0.4666667), wk =   0.0017778
        k(  241) = (   0.2000000   0.2000000  -0.4000000), wk =   0.0017778
        k(  242) = (   0.2000000   0.2000000  -0.3333333), wk =   0.0017778
        k(  243) = (   0.2000000   0.2000000  -0.2666667), wk =   0.0017778
        k(  244) = (   0.2000000   0.2000000  -0.2000000), wk =   0.0017778
        k(  245) = (   0.2000000   0.2666667   0.2666667), wk =   0.0017778
        k(  246) = (   0.2000000   0.2666667   0.3333333), wk =   0.0035556
        k(  247) = (   0.2000000   0.2666667   0.4000000), wk =   0.0035556
        k(  248) = (   0.2000000   0.2666667   0.4666667), wk =   0.0035556
        k(  249) = (   0.2000000   0.2666667  -0.4666667), wk =   0.0035556
        k(  250) = (   0.2000000   0.2666667  -0.4000000), wk =   0.0035556
        k(  251) = (   0.2000000   0.2666667  -0.3333333), wk =   0.0035556
        k(  252) = (   0.2000000   0.2666667  -0.2666667), wk =   0.0035556
        k(  253) = (   0.2000000   0.2666667  -0.2000000), wk =   0.0035556
        k(  254) = (   0.2000000   0.3333333   0.3333333), wk =   0.0017778
        k(  255) = (   0.2000000   0.3333333   0.4000000), wk =   0.0035556
        k(  256) = (   0.2000000   0.3333333   0.4666667), wk =   0.0035556
        k(  257) = (   0.2000000   0.3333333  -0.4666667), wk =   0.0035556
        k(  258) = (   0.2000000   0.3333333  -0.4000000), wk =   0.0035556
        k(  259) = (   0.2000000   0.3333333  -0.3333333), wk =   0.0035556
        k(  260) = (   0.2000000   0.3333333  -0.2666667), wk =   0.0035556
        k(  261) = (   0.2000000   0.3333333  -0.2000000), wk =   0.0035556
        k(  262) = (   0.2000000   0.4000000   0.4000000), wk =   0.0017778
        k(  263) = (   0.2000000   0.4000000   0.4666667), wk =   0.0035556
        k(  264) = (   0.2000000   0.4000000  -0.4666667), wk =   0.0035556
        k(  265) = (   0.2000000   0.4000000  -0.4000000), wk =   0.0035556
        k(  266) = (   0.2000000   0.4000000  -0.3333333), wk =   0.0035556
        k(  267) = (   0.2000000   0.4000000  -0.2666667), wk =   0.0035556
        k(  268) = (   0.2000000   0.4000000  -0.2000000), wk =   0.0035556
        k(  269) = (   0.2000000   0.4666667   0.4666667), wk =   0.0017778
        k(  270) = (   0.2000000   0.4666667  -0.4666667), wk =   0.0035556
        k(  271) = (   0.2000000   0.4666667  -0.4000000), wk =   0.0035556
        k(  272) = (   0.2000000   0.4666667  -0.3333333), wk =   0.0035556
        k(  273) = (   0.2000000   0.4666667  -0.2666667), wk =   0.0035556
        k(  274) = (   0.2000000   0.4666667  -0.2000000), wk =   0.0035556
        k(  275) = (   0.2000000  -0.4666667  -0.4666667), wk =   0.0017778
        k(  276) = (   0.2000000  -0.4666667  -0.4000000), wk =   0.0035556
        k(  277) = (   0.2000000  -0.4666667  -0.3333333), wk =   0.0035556
        k(  278) = (   0.2000000  -0.4666667  -0.2666667), wk =   0.0035556
        k(  279) = (   0.2000000  -0.4000000  -0.4000000), wk =   0.0017778
        k(  280) = (   0.2000000  -0.4000000  -0.3333333), wk =   0.0035556
        k(  281) = (   0.2000000  -0.4000000  -0.2666667), wk =   0.0035556
        k(  282) = (   0.2000000  -0.3333333  -0.3333333), wk =   0.0017778
        k(  283) = (   0.2000000  -0.3333333  -0.2666667), wk =   0.0035556
        k(  284) = (   0.2000000  -0.2666667  -0.2666667), wk =   0.0017778
        k(  285) = (   0.2666667   0.2666667   0.2666667), wk =   0.0005926
        k(  286) = (   0.2666667   0.2666667   0.3333333), wk =   0.0017778
        k(  287) = (   0.2666667   0.2666667   0.4000000), wk =   0.0017778
        k(  288) = (   0.2666667   0.2666667   0.4666667), wk =   0.0017778
        k(  289) = (   0.2666667   0.2666667  -0.4666667), wk =   0.0017778
        k(  290) = (   0.2666667   0.2666667  -0.4000000), wk =   0.0017778
        k(  291) = (   0.2666667   0.2666667  -0.3333333), wk =   0.0017778
        k(  292) = (   0.2666667   0.2666667  -0.2666667), wk =   0.0017778
        k(  293) = (   0.2666667   0.3333333   0.3333333), wk =   0.0017778
        k(  294) = (   0.2666667   0.3333333   0.4000000), wk =   0.0035556
        k(  295) = (   0.2666667   0.3333333   0.4666667), wk =   0.0035556
        k(  296) = (   0.2666667   0.3333333  -0.4666667), wk =   0.0035556
        k(  297) = (   0.2666667   0.3333333  -0.4000000), wk =   0.0035556
        k(  298) = (   0.2666667   0.3333333  -0.3333333), wk =   0.0035556
        k(  299) = (   0.2666667   0.3333333  -0.2666667), wk =   0.0035556
        k(  300) = (   0.2666667   0.4000000   0.4000000), wk =   0.0017778
        k(  301) = (   0.2666667   0.4000000   0.4666667), wk =   0.0035556
        k(  302) = (   0.2666667   0.4000000  -0.4666667), wk =   0.0035556
        k(  303) = (   0.2666667   0.4000000  -0.4000000), wk =   0.0035556
        k(  304) = (   0.2666667   0.4000000  -0.3333333), wk =   0.0035556
        k(  305) = (   0.2666667   0.4000000  -0.2666667), wk =   0.0035556
        k(  306) = (   0.2666667   0.4666667   0.4666667), wk =   0.0017778
        k(  307) = (   0.2666667   0.4666667  -0.4666667), wk =   0.0035556
        k(  308) = (   0.2666667   0.4666667  -0.4000000), wk =   0.0035556
        k(  309) = (   0.2666667   0.4666667  -0.3333333), wk =   0.0035556
        k(  310) = (   0.2666667   0.4666667  -0.2666667), wk =   0.0035556
        k(  311) = (   0.2666667  -0.4666667  -0.4666667), wk =   0.0017778
        k(  312) = (   0.2666667  -0.4666667  -0.4000000), wk =   0.0035556
        k(  313) = (   0.2666667  -0.4666667  -0.3333333), wk =   0.0035556
        k(  314) = (   0.2666667  -0.4000000  -0.4000000), wk =   0.0017778
        k(  315) = (   0.2666667  -0.4000000  -0.3333333), wk =   0.0035556
        k(  316) = (   0.2666667  -0.3333333  -0.3333333), wk =   0.0017778
        k(  317) = (   0.3333333   0.3333333   0.3333333), wk =   0.0005926
        k(  318) = (   0.3333333   0.3333333   0.4000000), wk =   0.0017778
        k(  319) = (   0.3333333   0.3333333   0.4666667), wk =   0.0017778
        k(  320) = (   0.3333333   0.3333333  -0.4666667), wk =   0.0017778
        k(  321) = (   0.3333333   0.3333333  -0.4000000), wk =   0.0017778
        k(  322) = (   0.3333333   0.3333333  -0.3333333), wk =   0.0017778
        k(  323) = (   0.3333333   0.4000000   0.4000000), wk =   0.0017778
        k(  324) = (   0.3333333   0.4000000   0.4666667), wk =   0.0035556
        k(  325) = (   0.3333333   0.4000000  -0.4666667), wk =   0.0035556
        k(  326) = (   0.3333333   0.4000000  -0.4000000), wk =   0.0035556
        k(  327) = (   0.3333333   0.4000000  -0.3333333), wk =   0.0035556
        k(  328) = (   0.3333333   0.4666667   0.4666667), wk =   0.0017778
        k(  329) = (   0.3333333   0.4666667  -0.4666667), wk =   0.0035556
        k(  330) = (   0.3333333   0.4666667  -0.4000000), wk =   0.0035556
        k(  331) = (   0.3333333   0.4666667  -0.3333333), wk =   0.0035556
        k(  332) = (   0.3333333  -0.4666667  -0.4666667), wk =   0.0017778
        k(  333) = (   0.3333333  -0.4666667  -0.4000000), wk =   0.0035556
        k(  334) = (   0.3333333  -0.4000000  -0.4000000), wk =   0.0017778
        k(  335) = (   0.4000000   0.4000000   0.4000000), wk =   0.0005926
        k(  336) = (   0.4000000   0.4000000   0.4666667), wk =   0.0017778
        k(  337) = (   0.4000000   0.4000000  -0.4666667), wk =   0.0017778
        k(  338) = (   0.4000000   0.4000000  -0.4000000), wk =   0.0017778
        k(  339) = (   0.4000000   0.4666667   0.4666667), wk =   0.0017778
        k(  340) = (   0.4000000   0.4666667  -0.4666667), wk =   0.0035556
        k(  341) = (   0.4000000   0.4666667  -0.4000000), wk =   0.0035556
        k(  342) = (   0.4000000  -0.4666667  -0.4666667), wk =   0.0017778
        k(  343) = (   0.4666667   0.4666667   0.4666667), wk =   0.0005926
        k(  344) = (   0.4666667   0.4666667  -0.4666667), wk =   0.0017778

     Dense  grid:    40057 G-vectors     FFT dimensions: (  72,  72,  72)

     Dynamical RAM for                 wfc:       0.34 MB

     Dynamical RAM for     wfc (w. buffer):      15.11 MB

     Dynamical RAM for             V proj.:       0.15 MB

     Dynamical RAM for  V proj. (w. buff.):       6.71 MB

     Dynamical RAM for           str. fact:       0.23 MB

     Dynamical RAM for           local pot:       0.00 MB

     Dynamical RAM for          nlocal pot:       0.59 MB

     Dynamical RAM for                qrad:       4.82 MB

     Dynamical RAM for          rho,v,vnew:       2.59 MB

     Dynamical RAM for               rhoin:       0.86 MB

     Dynamical RAM for            rho*nmix:       2.44 MB

     Dynamical RAM for           G-vectors:       0.32 MB

     Dynamical RAM for          h,s,v(r/c):       0.24 MB

     Dynamical RAM for          <psi|beta>:       0.03 MB

     Dynamical RAM for                 psi:       0.69 MB

     Dynamical RAM for                hpsi:       0.69 MB

     Dynamical RAM for      wfcinit/wfcrot:       0.72 MB

     Estimated static dynamical RAM per process >      33.68 MB

     Estimated max dynamical RAM per process >      37.77 MB

     Estimated total dynamical RAM >       4.43 GB
     Generating pointlists ...
     new r_m :   0.1684 (alat units)  1.7328 (a.u.) for type    1
     new r_m :   0.1684 (alat units)  1.7328 (a.u.) for type    2
     new r_m :   0.1684 (alat units)  1.7328 (a.u.) for type    3

     Initial potential from superposition of free atoms

     starting charge      41.9990, renormalised to      42.0000
 
     =========================
     E(+U+V) =  0.000000000 Ry
     =========================

     Atomic wfcs used for DFT+U+V projectors are orthogonalized

     Starting wfcs are random

     total cpu time spent up to now is        4.9 secs

     Self-consistent Calculation

     iteration #  1     ecut=   100.00 Ry     beta= 0.70
     Davidson diagonalization with overlap

---- Real-time Memory Report at c_bands before calling an iterative solver
           828 MiB given to the printing process from OS
             0 MiB allocation reported by mallinfo(arena+hblkhd)
        439038 MiB available memory on the node where the printing process lives
------------------
     ethr =  1.00E-02,  avg # of iterations =  9.5
                                        
     -----------------------------------
     V[atom i, atom j, #orb(i), #orb(j)]
     -----------------------------------
     [  1,  1,  5,  5  ]
     [  0     0     0  ]
       0.0000   0.0000   0.0000   0.0000   0.0000
       0.0000   0.0000   0.0000   0.0000   0.0000
       0.0000   0.0000   0.0000   0.0000   0.0000
       0.0000   0.0000   0.0000   0.0000   0.0000
       0.0000   0.0000   0.0000   0.0000   0.0000
 
     [  2,  2,  5,  5  ]
     [  0     0     0  ]
       0.0000   0.0000   0.0000   0.0000   0.0000
       0.0000   0.0000   0.0000   0.0000   0.0000
       0.0000   0.0000   0.0000   0.0000   0.0000
       0.0000   0.0000   0.0000   0.0000   0.0000
       0.0000   0.0000   0.0000   0.0000   0.0000
 
     [  3,  3,  3,  3  ]
     [  0     0     0  ]
       0.0000   0.0000   0.0000
       0.0000   0.0000   0.0000
       0.0000   0.0000   0.0000
 
     [  4,  4,  3,  3  ]
     [  0     0     0  ]
       0.0000   0.0000   0.0000
       0.0000   0.0000   0.0000
       0.0000   0.0000   0.0000
 
     [  1,  4,  5,  3  ]
     [ -1    -1     0  ]
       0.0000   0.0000   0.0000
       0.0000   0.0000   0.0000
       0.0000   0.0000   0.0000
       0.0000   0.0000   0.0000
       0.0000   0.0000   0.0000
 
     [  1,  4,  5,  3  ]
     [ -1     0    -1  ]
       0.0000   0.0000   0.0000
       0.0000   0.0000   0.0000
       0.0000   0.0000   0.0000
       0.0000   0.0000   0.0000
       0.0000   0.0000   0.0000
 
     [  1,  3,  5,  3  ]
     [ -1     0     0  ]
       0.0000   0.0000   0.0000
       0.0000   0.0000   0.0000
       0.0000   0.0000   0.0000
       0.0000   0.0000   0.0000
       0.0000   0.0000   0.0000
 
     [  2,  4,  5,  3  ]
     [ -1     0     0  ]
       0.0000   0.0000   0.0000
       0.0000   0.0000   0.0000
       0.0000   0.0000   0.0000
       0.0000   0.0000   0.0000
       0.0000   0.0000   0.0000
 
     [  3,  2,  3,  5  ]
     [ -1     0     0  ]
       0.0000   0.0000   0.0000   0.0000   0.0000
       0.0000   0.0000   0.0000   0.0000   0.0000
       0.0000   0.0000   0.0000   0.0000   0.0000
 
     [  1,  4,  5,  3  ]
     [  0    -1    -1  ]
       0.0000   0.0000   0.0000
       0.0000   0.0000   0.0000
       0.0000   0.0000   0.0000
       0.0000   0.0000   0.0000
       0.0000   0.0000   0.0000
 
     [  1,  3,  5,  3  ]
     [  0    -1     0  ]
       0.0000   0.0000   0.0000
       0.0000   0.0000   0.0000
       0.0000   0.0000   0.0000
       0.0000   0.0000   0.0000
       0.0000   0.0000   0.0000
 
     [  2,  4,  5,  3  ]
     [  0    -1     0  ]
       0.0000   0.0000   0.0000
       0.0000   0.0000   0.0000
       0.0000   0.0000   0.0000
       0.0000   0.0000   0.0000
       0.0000   0.0000   0.0000
 
     [  3,  2,  3,  5  ]
     [  0    -1     0  ]
       0.0000   0.0000   0.0000   0.0000   0.0000
       0.0000   0.0000   0.0000   0.0000   0.0000
       0.0000   0.0000   0.0000   0.0000   0.0000
 
     [  1,  3,  5,  3  ]
     [  0     0    -1  ]
       0.0000   0.0000   0.0000
       0.0000   0.0000   0.0000
       0.0000   0.0000   0.0000
       0.0000   0.0000   0.0000
       0.0000   0.0000   0.0000
 
     [  2,  4,  5,  3  ]
     [  0     0    -1  ]
       0.0000   0.0000   0.0000
       0.0000   0.0000   0.0000
       0.0000   0.0000   0.0000
       0.0000   0.0000   0.0000
       0.0000   0.0000   0.0000
 
     [  3,  2,  3,  5  ]
     [  0     0    -1  ]
       0.0000   0.0000   0.0000   0.0000   0.0000
       0.0000   0.0000   0.0000   0.0000   0.0000
       0.0000   0.0000   0.0000   0.0000   0.0000
 
     [  2,  3,  5,  3  ]
     [  0     0     1  ]
       0.0000   0.0000   0.0000
       0.0000   0.0000   0.0000
       0.0000   0.0000   0.0000
       0.0000   0.0000   0.0000
       0.0000   0.0000   0.0000
 
     [  3,  1,  3,  5  ]
     [  0     0     1  ]
       0.0000   0.0000   0.0000   0.0000   0.0000
       0.0000   0.0000   0.0000   0.0000   0.0000
       0.0000   0.0000   0.0000   0.0000   0.0000
 
     [  4,  2,  3,  5  ]
     [  0     0     1  ]
       0.0000   0.0000   0.0000   0.0000   0.0000
       0.0000   0.0000   0.0000   0.0000   0.0000
       0.0000   0.0000   0.0000   0.0000   0.0000
 
     [  2,  3,  5,  3  ]
     [  0     1     0  ]
       0.0000   0.0000   0.0000
       0.0000   0.0000   0.0000
       0.0000   0.0000   0.0000
       0.0000   0.0000   0.0000
       0.0000   0.0000   0.0000
 
     [  3,  1,  3,  5  ]
     [  0     1     0  ]
       0.0000   0.0000   0.0000   0.0000   0.0000
       0.0000   0.0000   0.0000   0.0000   0.0000
       0.0000   0.0000   0.0000   0.0000   0.0000
 
     [  4,  2,  3,  5  ]
     [  0     1     0  ]
       0.0000   0.0000   0.0000   0.0000   0.0000
       0.0000   0.0000   0.0000   0.0000   0.0000
       0.0000   0.0000   0.0000   0.0000   0.0000
 
     [  4,  1,  3,  5  ]
     [  0     1     1  ]
       0.0000   0.0000   0.0000   0.0000   0.0000
       0.0000   0.0000   0.0000   0.0000   0.0000
       0.0000   0.0000   0.0000   0.0000   0.0000
 
     [  2,  3,  5,  3  ]
     [  1     0     0  ]
       0.0000   0.0000   0.0000
       0.0000   0.0000   0.0000
       0.0000   0.0000   0.0000
       0.0000   0.0000   0.0000
       0.0000   0.0000   0.0000
 
     [  3,  1,  3,  5  ]
     [  1     0     0  ]
       0.0000   0.0000   0.0000   0.0000   0.0000
       0.0000   0.0000   0.0000   0.0000   0.0000
       0.0000   0.0000   0.0000   0.0000   0.0000
 
     [  4,  2,  3,  5  ]
     [  1     0     0  ]
       0.0000   0.0000   0.0000   0.0000   0.0000
       0.0000   0.0000   0.0000   0.0000   0.0000
       0.0000   0.0000   0.0000   0.0000   0.0000
 
     [  4,  1,  3,  5  ]
     [  1     0     1  ]
       0.0000   0.0000   0.0000   0.0000   0.0000
       0.0000   0.0000   0.0000   0.0000   0.0000
       0.0000   0.0000   0.0000   0.0000   0.0000
 
     [  4,  1,  3,  5  ]
     [  1     1     0  ]
       0.0000   0.0000   0.0000   0.0000   0.0000
       0.0000   0.0000   0.0000   0.0000   0.0000
       0.0000   0.0000   0.0000   0.0000   0.0000
 
 
     =========================
     E(+U+V) =  0.000000000 Ry
     =========================

     total cpu time spent up to now is       21.7 secs

     total energy              =    -501.65514987 Ry
     estimated scf accuracy    <       0.62017717 Ry

     total magnetization       =     0.00 Bohr mag/cell
     absolute magnetization    =     8.85 Bohr mag/cell

     iteration #  2     ecut=   100.00 Ry     beta= 0.70
     Davidson diagonalization with overlap

---- Real-time Memory Report at c_bands before calling an iterative solver
           855 MiB given to the printing process from OS
             0 MiB allocation reported by mallinfo(arena+hblkhd)
        438730 MiB available memory on the node where the printing process lives
------------------
     ethr =  1.48E-03,  avg # of iterations =  2.5
 
     =========================
     E(+U+V) =  0.000000000 Ry
     =========================

     total cpu time spent up to now is       27.7 secs

     total energy              =    -501.53464998 Ry
     estimated scf accuracy    <       1.48508048 Ry

     total magnetization       =    -0.00 Bohr mag/cell
     absolute magnetization    =     8.00 Bohr mag/cell

     iteration #  3     ecut=   100.00 Ry     beta= 0.70
     Davidson diagonalization with overlap

---- Real-time Memory Report at c_bands before calling an iterative solver
           861 MiB given to the printing process from OS
             0 MiB allocation reported by mallinfo(arena+hblkhd)
        438689 MiB available memory on the node where the printing process lives
------------------
     ethr =  1.48E-03,  avg # of iterations =  2.0
 
     =========================
     E(+U+V) =  0.000000000 Ry
     =========================

     total cpu time spent up to now is       33.2 secs

     total energy              =    -501.88797576 Ry
     estimated scf accuracy    <       0.10142356 Ry

     total magnetization       =     0.00 Bohr mag/cell
     absolute magnetization    =     9.00 Bohr mag/cell

     iteration #  4     ecut=   100.00 Ry     beta= 0.70
     Davidson diagonalization with overlap

---- Real-time Memory Report at c_bands before calling an iterative solver
           867 MiB given to the printing process from OS
             0 MiB allocation reported by mallinfo(arena+hblkhd)
        438680 MiB available memory on the node where the printing process lives
------------------
     ethr =  2.41E-04,  avg # of iterations =  2.2
 
     =========================
     E(+U+V) =  0.000000000 Ry
     =========================

     total cpu time spent up to now is       38.2 secs

     total energy              =    -501.90283988 Ry
     estimated scf accuracy    <       0.01108220 Ry

     total magnetization       =    -0.00 Bohr mag/cell
     absolute magnetization    =     9.06 Bohr mag/cell

     iteration #  5     ecut=   100.00 Ry     beta= 0.70
     Davidson diagonalization with overlap

---- Real-time Memory Report at c_bands before calling an iterative solver
           872 MiB given to the printing process from OS
             0 MiB allocation reported by mallinfo(arena+hblkhd)
        438681 MiB available memory on the node where the printing process lives
------------------
     ethr =  2.64E-05,  avg # of iterations =  2.8
 
     =========================
     E(+U+V) =  0.000000000 Ry
     =========================

     total cpu time spent up to now is       43.6 secs

     total energy              =    -501.90446292 Ry
     estimated scf accuracy    <       0.00008004 Ry

     total magnetization       =    -0.00 Bohr mag/cell
     absolute magnetization    =     9.11 Bohr mag/cell

     iteration #  6     ecut=   100.00 Ry     beta= 0.70
     Davidson diagonalization with overlap

---- Real-time Memory Report at c_bands before calling an iterative solver
           877 MiB given to the printing process from OS
             0 MiB allocation reported by mallinfo(arena+hblkhd)
        438668 MiB available memory on the node where the printing process lives
------------------
     ethr =  1.91E-07,  avg # of iterations =  5.8
 
     =========================
     E(+U+V) =  0.000000000 Ry
     =========================

     total cpu time spent up to now is       50.5 secs

     total energy              =    -501.90448883 Ry
     estimated scf accuracy    <       0.00004857 Ry

     total magnetization       =    -0.00 Bohr mag/cell
     absolute magnetization    =     9.11 Bohr mag/cell

     iteration #  7     ecut=   100.00 Ry     beta= 0.70
     Davidson diagonalization with overlap

---- Real-time Memory Report at c_bands before calling an iterative solver
           882 MiB given to the printing process from OS
             0 MiB allocation reported by mallinfo(arena+hblkhd)
        438667 MiB available memory on the node where the printing process lives
------------------
     ethr =  1.16E-07,  avg # of iterations =  2.1
 
     =========================
     E(+U+V) =  0.000000000 Ry
     =========================

     total cpu time spent up to now is       55.5 secs

     total energy              =    -501.90449384 Ry
     estimated scf accuracy    <       0.00000661 Ry

     total magnetization       =    -0.00 Bohr mag/cell
     absolute magnetization    =     9.11 Bohr mag/cell

     iteration #  8     ecut=   100.00 Ry     beta= 0.70
     Davidson diagonalization with overlap

---- Real-time Memory Report at c_bands before calling an iterative solver
           886 MiB given to the printing process from OS
             0 MiB allocation reported by mallinfo(arena+hblkhd)
        438657 MiB available memory on the node where the printing process lives
------------------
     ethr =  1.57E-08,  avg # of iterations =  2.4
 
     =========================
     E(+U+V) =  0.000000000 Ry
     =========================

     total cpu time spent up to now is       61.4 secs

     total energy              =    -501.90449541 Ry
     estimated scf accuracy    <       0.00000011 Ry

     total magnetization       =     0.00 Bohr mag/cell
     absolute magnetization    =     9.11 Bohr mag/cell

     iteration #  9     ecut=   100.00 Ry     beta= 0.70
     Davidson diagonalization with overlap

---- Real-time Memory Report at c_bands before calling an iterative solver
           890 MiB given to the printing process from OS
             0 MiB allocation reported by mallinfo(arena+hblkhd)
        438659 MiB available memory on the node where the printing process lives
------------------
     ethr =  2.73E-10,  avg # of iterations =  4.5
 
     =========================
     E(+U+V) =  0.000000000 Ry
     =========================
 
     Magnetic moment per site  (integrated on atomic sphere of radius R)
     atom   1 (R=0.168)  charge= 12.6067  magn= -4.0902
     atom   2 (R=0.168)  charge= 12.6068  magn=  4.0902
     atom   3 (R=0.168)  charge=  5.9522  magn= -0.0000
     atom   4 (R=0.168)  charge=  5.9522  magn= -0.0000

     total cpu time spent up to now is       67.3 secs

     End of self-consistent calculation

 ------ SPIN UP ------------


          k = 0.0000 0.0000 0.0000 (  4957 PWs)   bands (ev):

   -68.0203 -63.5643 -36.9592 -36.9233 -36.9233 -32.2190 -32.2023 -32.2023
[...]
     1.0000   1.0000   1.0000   1.0000   1.0000   0.0000   0.0000   0.0000
     0.0000   0.0000   0.0000   0.0000   0.0000   0.0000   0.0000   0.0000
     0.0000   0.0000   0.0000   0.0000

          k = 0.4082 0.2449 0.0816 (  5029 PWs)   bands (ev):

   -68.0196 -63.5638 -36.9581 -36.9292 -36.9248 -32.2182 -32.2100 -32.2043
    -6.1872  -5.9129   6.6449   7.4876   8.1115   8.3944   8.8792   9.0223
    10.5811  10.6429  11.0516  12.1053  12.4382  14.7574  14.9125  15.0701
    15.2760  16.1387  16.5277  17.4192  23.3605  24.9978  25.9636  27.0977
    27.5509  29.1285  30.5373  31.5866

     occupation numbers 
     1.0000   1.0000   1.0000   1.0000   1.0000   1.0000   1.0000   1.0000
     1.0000   1.0000   1.0000   1.0000   1.0000   1.0000   1.0000   1.0000
     1.0000   1.0000   1.0000   1.0000   1.0000   0.0000   0.0000   0.0000
     0.0000   0.0000   0.0000   0.0000   0.0000   0.0000   0.0000   0.0000
     0.0000   0.0000   0.0000   0.0000

          k =-0.5443-0.7076 1.4153 (  5027 PWs)   bands (ev):

   -68.0190 -63.5630 -36.9570 -36.9362 -36.9267 -32.2190 -32.2166 -32.2067
    -6.0774  -5.8792   6.6768   7.1388   8.0790   8.3397   8.8294   8.8974
    10.5021  10.7841  11.2263  11.8765  12.3016  14.8096  14.9356  15.1613
    15.2445  16.2142  17.2963  17.8059  23.5773  24.7483  24.9569  26.1404
    27.6198  28.6278  29.3939  31.1575

     occupation numbers 
     1.0000   1.0000   1.0000   1.0000   1.0000   1.0000   1.0000   1.0000
     1.0000   1.0000   1.0000   1.0000   1.0000   1.0000   1.0000   1.0000
     1.0000   1.0000   1.0000   1.0000   1.0000   0.0000   0.0000   0.0000
     0.0000   0.0000   0.0000   0.0000   0.0000   0.0000   0.0000   0.0000
     0.0000   0.0000   0.0000   0.0000

          k =-0.4763-0.6396 1.3200 (  5013 PWs)   bands (ev):

   -68.0181 -63.5620 -36.9556 -36.9452 -36.9292 -32.2304 -32.2146 -32.2099
    -5.9540  -5.8143   6.5737   6.8646   8.0423   8.1288   8.7847   8.8981
    10.3780  10.9082  11.3073  11.8131  12.2369  14.7195  15.0672  15.2657
    15.4217  16.3018  18.0781  18.1810  23.3112  24.2440  24.8396  24.9727
    27.3119  28.2200  28.7145  31.2808

     occupation numbers 
     1.0000   1.0000   1.0000   1.0000   1.0000   1.0000   1.0000   1.0000
     1.0000   1.0000   1.0000   1.0000   1.0000   1.0000   1.0000   1.0000
     1.0000   1.0000   1.0000   1.0000   1.0000   0.0000   0.0000   0.0000
     0.0000   0.0000   0.0000   0.0000   0.0000   0.0000   0.0000   0.0000
     0.0000   0.0000   0.0000   0.0000

          k =-0.4083-0.5716 1.2248 (  4992 PWs)   bands (ev):

   -68.0173 -63.5610 -36.9548 -36.9539 -36.9319 -32.2424 -32.2133 -32.2124
    -5.8359  -5.7309   6.3418   6.6835   7.9292   8.0255   8.7260   8.8973
    10.2423  10.9956  11.2844  11.9843  12.2296  14.6136  15.2154  15.5152
    15.6107  16.3823  18.4237  18.7275  22.4826  23.8416  24.4280  24.8193
    26.9210  27.8017  28.3633  31.9332

     occupation numbers 
     1.0000   1.0000   1.0000   1.0000   1.0000   1.0000   1.0000   1.0000
     1.0000   1.0000   1.0000   1.0000   1.0000   1.0000   1.0000   1.0000
     1.0000   1.0000   1.0000   1.0000   1.0000   0.0000   0.0000   0.0000
     0.0000   0.0000   0.0000   0.0000   0.0000   0.0000   0.0000   0.0000
     0.0000   0.0000   0.0000   0.0000

          k = 0.4763 0.1497 0.1497 (  5034 PWs)   bands (ev):

   -68.0195 -63.5636 -36.9578 -36.9311 -36.9252 -32.2178 -32.2125 -32.2048
    -6.1323  -5.9321   6.7264   7.3376   8.1947   8.3539   8.8119   8.9006
    10.5312  10.7082  11.0995  12.0411  12.4912  14.6983  14.9829  15.0993
    15.3633  16.1255  16.5505  17.5934  23.5839  24.6579  26.0676  26.5450
    27.2518  29.4334  30.7441  31.0626

     occupation numbers 
     1.0000   1.0000   1.0000   1.0000   1.0000   1.0000   1.0000   1.0000
     1.0000   1.0000   1.0000   1.0000   1.0000   1.0000   1.0000   1.0000
     1.0000   1.0000   1.0000   1.0000   1.0000   0.0000   0.0000   0.0000
     0.0000   0.0000   0.0000   0.0000   0.0000   0.0000   0.0000   0.0000
     0.0000   0.0000   0.0000   0.0000

          k =-0.4763-0.8029 1.4833 (  5027 PWs)   bands (ev):

   -68.0190 -63.5630 -36.9570 -36.9362 -36.9267 -32.2190 -32.2166 -32.2067
    -6.0423  -5.9158   6.7583   7.0716   8.1468   8.4204   8.7284   8.7622
    10.5501  10.7398  11.2054  11.9160  12.3975  14.7497  14.9617  15.2291
    15.3102  16.1259  17.1302  17.8838  23.8453  24.3493  25.2860  25.8139
    27.4898  28.9001  30.1159  30.5224

     occupation numbers 
     1.0000   1.0000   1.0000   1.0000   1.0000   1.0000   1.0000   1.0000
     1.0000   1.0000   1.0000   1.0000   1.0000   1.0000   1.0000   1.0000
     1.0000   1.0000   1.0000   1.0000   1.0000   0.0000   0.0000   0.0000
     0.0000   0.0000   0.0000   0.0000   0.0000   0.0000   0.0000   0.0000
     0.0000   0.0000   0.0000   0.0000

          k =-0.4083-0.7349 1.3881 (  5011 PWs)   bands (ev):

   -68.0183 -63.5622 -36.9558 -36.9433 -36.9294 -32.2280 -32.2150 -32.2100
    -5.9341  -5.8638   6.6890   6.8308   8.1071   8.3508   8.5078   8.7838
    10.5822  10.7525  11.3013  11.8190  12.3488  14.8580  14.8835  15.3330
    15.4390  16.1354  17.8961  18.2026  23.8387  24.0675  24.5264  25.0390
    27.4238  28.2932  29.7909  30.0763

     occupation numbers 
     1.0000   1.0000   1.0000   1.0000   1.0000   1.0000   1.0000   1.0000
     1.0000   1.0000   1.0000   1.0000   1.0000   1.0000   1.0000   1.0000
     1.0000   1.0000   1.0000   1.0000   1.0000   0.0000   0.0000   0.0000
     0.0000   0.0000   0.0000   0.0000   0.0000   0.0000   0.0000   0.0000
     0.0000   0.0000   0.0000   0.0000

          k =-0.3402-0.6668 1.2928 (  5012 PWs)   bands (ev):

   -68.0174 -63.5612 -36.9544 -36.9513 -36.9326 -32.2382 -32.2144 -32.2127
    -5.8255  -5.7851   6.5242   6.6646   8.0457   8.1464   8.3836   8.7951
    10.5136  10.8239  11.3032  11.9337  12.3540  14.7794  15.0002  15.5209
    15.6150  16.1914  18.4369  18.6518  22.9338  23.7978  24.2864  24.6476
    27.0825  27.7930  29.2845  30.5584

     occupation numbers 
     1.0000   1.0000   1.0000   1.0000   1.0000   1.0000   1.0000   1.0000
     1.0000   1.0000   1.0000   1.0000   1.0000   1.0000   1.0000   1.0000
     1.0000   1.0000   1.0000   1.0000   1.0000   0.0000   0.0000   0.0000
     0.0000   0.0000   0.0000   0.0000   0.0000   0.0000   0.0000   0.0000
     0.0000   0.0000   0.0000   0.0000

          k =-1.4289 0.5307 0.5307 (  5023 PWs)   bands (ev):

   -68.0187 -63.5627 -36.9565 -36.9397 -36.9273 -32.2235 -32.2159 -32.2074
    -5.9732  -5.9190   6.7817   6.8950   8.1415   8.3143   8.7019   8.8482
    10.4058  10.8644  11.2107  11.9322  12.3382  14.6728  15.0862  15.2520
    15.3136  16.2618  17.2548  18.0891  23.8516  24.1239  25.2633  25.4255
    27.2748  28.7756  29.3232  31.3455

     occupation numbers 
     1.0000   1.0000   1.0000   1.0000   1.0000   1.0000   1.0000   1.0000
     1.0000   1.0000   1.0000   1.0000   1.0000   1.0000   1.0000   1.0000
     1.0000   1.0000   1.0000   1.0000   1.0000   0.0000   0.0000   0.0000
     0.0000   0.0000   0.0000   0.0000   0.0000   0.0000   0.0000   0.0000
     0.0000   0.0000   0.0000   0.0000

          k =-1.3608 0.5988 0.4355 (  5013 PWs)   bands (ev):

   -68.0181 -63.5620 -36.9556 -36.9452 -36.9292 -32.2304 -32.2146 -32.2099
    -5.8952  -5.8743   6.6645   6.7659   8.0900   8.2187   8.7076   8.7867
    10.4099  10.8812  11.2659  11.8857  12.3037  14.6965  15.0690  15.3444
    15.4358  16.2486  17.8073  18.3372  23.4089  24.3422  24.6479  24.9371
    27.2793  28.3128  28.9587  31.1166

     occupation numbers 
     1.0000   1.0000   1.0000   1.0000   1.0000   1.0000   1.0000   1.0000
     1.0000   1.0000   1.0000   1.0000   1.0000   1.0000   1.0000   1.0000
     1.0000   1.0000   1.0000   1.0000   1.0000   0.0000   0.0000   0.0000
     0.0000   0.0000   0.0000   0.0000   0.0000   0.0000   0.0000   0.0000
     0.0000   0.0000   0.0000   0.0000

          k =-1.2928 0.5035 0.5035 (  5004 PWs)   bands (ev):

   -68.0178 -63.5616 -36.9550 -36.9495 -36.9297 -32.2360 -32.2137 -32.2104
    -5.8806  -5.8071   6.4849   6.7398   8.0204   8.0803   8.8723   8.8865
    10.2200  11.0001  11.2476  11.9515  12.1944  14.6131  15.2008  15.4193
    15.4350  16.4085  17.9743  18.5115  22.8997  24.2215  24.7289  24.9544
    27.0248  28.2133  28.2806  32.0676

     occupation numbers 
     1.0000   1.0000   1.0000   1.0000   1.0000   1.0000   1.0000   1.0000
     1.0000   1.0000   1.0000   1.0000   1.0000   1.0000   1.0000   1.0000
     1.0000   1.0000   1.0000   1.0000   1.0000   0.0000   0.0000   0.0000
     0.0000   0.0000   0.0000   0.0000   0.0000   0.0000   0.0000   0.0000
     0.0000   0.0000   0.0000   0.0000

          k = 0.2449 0.2449 0.2449 (  5038 PWs)   bands (ev):

   -68.0202 -63.5644 -36.9590 -36.9232 -36.9232 -32.2195 -32.2024 -32.2024
    -6.2603  -5.9584   6.6391   7.9320   8.1253   8.1253   9.1501   9.1501
    10.5492  10.5492  10.8140  12.5219  12.5219  14.6068  14.9280  14.9280
    15.4602  16.0976  16.0976  16.7201  23.2688  25.0374  27.3659  27.3659
    28.9223  28.9223  30.9572  31.7470

     occupation numbers 
     1.0000   1.0000   1.0000   1.0000   1.0000   1.0000   1.0000   1.0000
     1.0000   1.0000   1.0000   1.0000   1.0000   1.0000   1.0000   1.0000
     1.0000   1.0000   1.0000   1.0000   1.0000   0.0000   0.0000   0.0000
     0.0000   0.0000   0.0000   0.0000   0.0000   0.0000   0.0000   0.0000
     0.0000   0.0000   0.0000   0.0000

          k = 0.3130 0.3130 0.1497 (  5027 PWs)   bands (ev):

   -68.0200 -63.5642 -36.9586 -36.9253 -36.9237 -32.2191 -32.2050 -32.2030
    -6.2055  -5.9746   6.7390   7.6114   8.1200   8.3328   8.9528   9.1165
    10.5413  10.6163  10.9005  12.4104  12.4510  14.6794  14.9239  14.9625
    15.4028  16.1505  16.3131  16.8680  23.4551  24.8596  26.7546  27.6516
    28.3175  28.4988  31.3252  32.0937

     occupation numbers 
     1.0000   1.0000   1.0000   1.0000   1.0000   1.0000   1.0000   1.0000
     1.0000   1.0000   1.0000   1.0000   1.0000   1.0000   1.0000   1.0000
     1.0000   1.0000   1.0000   1.0000   1.0000   0.0000   0.0000   0.0000
     0.0000   0.0000   0.0000   0.0000   0.0000   0.0000   0.0000   0.0000
     0.0000   0.0000   0.0000   0.0000

          k =-0.6396-0.6396 1.4833 (  5034 PWs)   bands (ev):

   -68.0195 -63.5636 -36.9578 -36.9311 -36.9252 -32.2178 -32.2125 -32.2048
    -6.1123  -5.9528   6.7964   7.2354   8.1135   8.4782   8.7279   9.0235
    10.4837  10.7470  11.1058  12.0709  12.3467  14.7599  14.9669  15.0789
    15.2005  16.2283  17.0048  17.2461  23.6747  24.7551  25.6028  27.0271
    27.6166  28.5281  30.0578  31.7666

     occupation numbers 
     1.0000   1.0000   1.0000   1.0000   1.0000   1.0000   1.0000   1.0000
     1.0000   1.0000   1.0000   1.0000   1.0000   1.0000   1.0000   1.0000
     1.0000   1.0000   1.0000   1.0000   1.0000   0.0000   0.0000   0.0000
     0.0000   0.0000   0.0000   0.0000   0.0000   0.0000   0.0000   0.0000
     0.0000   0.0000   0.0000   0.0000

          k =-0.5716-0.5716 1.3881 (  5023 PWs)   bands (ev):

   -68.0187 -63.5627 -36.9565 -36.9397 -36.9273 -32.2235 -32.2159 -32.2074
    -5.9977  -5.8938   6.7225   6.9401   8.0842   8.2635   8.8111   8.9344
    10.3710  10.8880  11.2540  11.8570  12.2492  14.7073  15.0863  15.2026
    15.2429  16.3191  17.6329  17.8253  23.6518  24.6592  24.7632  25.6805
    27.3563  28.5643  28.9622  31.5107

     occupation numbers 
     1.0000   1.0000   1.0000   1.0000   1.0000   1.0000   1.0000   1.0000
     1.0000   1.0000   1.0000   1.0000   1.0000   1.0000   1.0000   1.0000
     1.0000   1.0000   1.0000   1.0000   1.0000   0.0000   0.0000   0.0000
     0.0000   0.0000   0.0000   0.0000   0.0000   0.0000   0.0000   0.0000
     0.0000   0.0000   0.0000   0.0000

          k = 0.3810 0.2177 0.2177 (  5032 PWs)   bands (ev):

   -68.0200 -63.5642 -36.9586 -36.9253 -36.9237 -32.2191 -32.2050 -32.2030
    -6.1736  -6.0081   6.8323   7.5247   8.1824   8.2834   8.9845   9.0194
    10.5666  10.5941  10.9032  12.3541  12.5551  14.6587  14.9184  14.9729
    15.5189  16.0782  16.2882  16.8464  23.6243  24.6494  27.1528  27.4599
    27.7095  29.0104  31.7019  31.8256

     occupation numbers 
     1.0000   1.0000   1.0000   1.0000   1.0000   1.0000   1.0000   1.0000
     1.0000   1.0000   1.0000   1.0000   1.0000   1.0000   1.0000   1.0000
     1.0000   1.0000   1.0000   1.0000   1.0000   0.0000   0.0000   0.0000
     0.0000   0.0000   0.0000   0.0000   0.0000   0.0000   0.0000   0.0000
     0.0000   0.0000   0.0000   0.0000

          k =-0.5716-0.7349 1.5514 (  5040 PWs)   bands (ev):

   -68.0196 -63.5638 -36.9580 -36.9292 -36.9248 -32.2182 -32.2100 -32.2043
    -6.1006  -6.0034   6.8943   7.2392   8.1624   8.4782   8.7532   8.9416
    10.5936  10.6271  11.0548  12.1368  12.4589  14.7487  14.9045  15.0698
    15.3343  16.1071  16.8046  17.1222  23.8497  24.4962  26.2156  26.7696
    27.8626  28.7196  30.8471  31.2223

     occupation numbers 
     1.0000   1.0000   1.0000   1.0000   1.0000   1.0000   1.0000   1.0000
     1.0000   1.0000   1.0000   1.0000   1.0000   1.0000   1.0000   1.0000
     1.0000   1.0000   1.0000   1.0000   1.0000   0.0000   0.0000   0.0000
     0.0000   0.0000   0.0000   0.0000   0.0000   0.0000   0.0000   0.0000
     0.0000   0.0000   0.0000   0.0000

          k =-0.5035-0.6668 1.4561 (  5028 PWs)   bands (ev):

   -68.0190 -63.5630 -36.9570 -36.9362 -36.9267 -32.2190 -32.2166 -32.2067
    -6.0020  -5.9568   6.8695   6.9462   8.1350   8.4585   8.6919   8.8067
    10.5250  10.7597  11.2274  11.8834  12.3583  14.7793  14.9475  15.2339
    15.2440  16.1623  17.4539  17.6019  24.0004  24.4065  25.1349  25.7507
    27.6688  28.6481  29.7472  30.7984

     occupation numbers 
     1.0000   1.0000   1.0000   1.0000   1.0000   1.0000   1.0000   1.0000
     1.0000   1.0000   1.0000   1.0000   1.0000   1.0000   1.0000   1.0000
     1.0000   1.0000   1.0000   1.0000   1.0000   0.0000   0.0000   0.0000
     0.0000   0.0000   0.0000   0.0000   0.0000   0.0000   0.0000   0.0000
     0.0000   0.0000   0.0000   0.0000

          k =-1.5241 0.5988 0.5988 (  5031 PWs)   bands (ev):

   -68.0195 -63.5636 -36.9578 -36.9311 -36.9252 -32.2178 -32.2125 -32.2048
    -6.0515  -6.0151   6.9416   7.1046   8.1711   8.5218   8.6429   8.9370
    10.5069  10.7253  11.1072  12.0599  12.4338  14.7249  14.9734  15.0877
    15.2953  16.1709  16.8786  17.3131  24.0328  24.3119  25.9206  26.6220
    27.4916  28.8991  30.3884  31.3892

     occupation numbers 
     1.0000   1.0000   1.0000   1.0000   1.0000   1.0000   1.0000   1.0000
     1.0000   1.0000   1.0000   1.0000   1.0000   1.0000   1.0000   1.0000
     1.0000   1.0000   1.0000   1.0000   1.0000   0.0000   0.0000   0.0000
     0.0000   0.0000   0.0000   0.0000   0.0000   0.0000   0.0000   0.0000
     0.0000   0.0000   0.0000   0.0000

          k = 0.2858 0.2858 0.2858 (  5034 PWs)   bands (ev):

   -68.0202 -63.5644 -36.9590 -36.9232 -36.9232 -32.2195 -32.2024 -32.2024
    -6.1655  -6.0581   6.9193   7.5966   8.1731   8.1731   9.0726   9.0726
    10.5527  10.5527  10.8140  12.5712  12.5712  14.5831  14.9210  14.9210
    15.8077  16.0711  16.0711  16.4484  23.7291  24.4838  27.7475  27.7475
    28.5186  28.5186  31.0854  31.5997

     occupation numbers 
     1.0000   1.0000   1.0000   1.0000   1.0000   1.0000   1.0000   1.0000
     1.0000   1.0000   1.0000   1.0000   1.0000   1.0000   1.0000   1.0000
     1.0000   1.0000   1.0000   1.0000   1.0000   0.0000   0.0000   0.0000
     0.0000   0.0000   0.0000   0.0000   0.0000   0.0000   0.0000   0.0000
     0.0000   0.0000   0.0000   0.0000

          k =-0.6668-0.6668 1.6194 (  5034 PWs)   bands (ev):

   -68.0200 -63.5642 -36.9586 -36.9253 -36.9237 -32.2191 -32.2050 -32.2030
    -6.1156  -6.0676   6.9696   7.3798   8.1731   8.3283   8.9160   9.0335
    10.5545  10.6055  10.9013  12.4036  12.5244  14.6588  14.9181  14.9648
    15.5233  16.1038  16.5478  16.5677  23.8851  24.3722  27.0675  27.7466
    27.8812  28.5439  31.5097  31.9659

     occupation numbers 
     1.0000   1.0000   1.0000   1.0000   1.0000   1.0000   1.0000   1.0000
     1.0000   1.0000   1.0000   1.0000   1.0000   1.0000   1.0000   1.0000
     1.0000   1.0000   1.0000   1.0000   1.0000   0.0000   0.0000   0.0000
     0.0000   0.0000   0.0000   0.0000   0.0000   0.0000   0.0000   0.0000
     0.0000   0.0000   0.0000   0.0000

     the Fermi energy is    13.0637 ev

!    total energy              =    -501.90449544 Ry
     estimated scf accuracy    <          3.7E-09 Ry

     The total energy is the sum of the following terms:
     one-electron contribution =    -207.50997551 Ry
     hartree contribution      =     127.56151551 Ry
     xc contribution           =     -90.40257254 Ry
     ewald contribution        =    -331.55346290 Ry
     Extended Hubbard energy   =       0.00000000 Ry

     total magnetization       =    -0.00 Bohr mag/cell
     absolute magnetization    =     9.11 Bohr mag/cell

     convergence has been achieved in   9 iterations

     Writing all to output data dir ./temp/MnO.save/ :
     XML data file, charge density, pseudopotentials, collected wavefunctions
 
     init_run     :      2.29s CPU      2.52s WALL (       1 calls)
     electrons    :     61.60s CPU     62.73s WALL (       1 calls)

     Called by init_run:
     wfcinit      :      1.62s CPU      1.80s WALL (       1 calls)
     wfcinit:wfcr :      1.54s CPU      1.56s WALL (      43 calls)
     potinit      :      0.15s CPU      0.17s WALL (       1 calls)
     hinit0       :      0.49s CPU      0.51s WALL (       1 calls)

     Called by electrons:
     c_bands      :     51.49s CPU     52.01s WALL (       9 calls)
     sum_band     :      7.35s CPU      7.46s WALL (       9 calls)
     v_of_rho     :      2.45s CPU      2.50s WALL (      10 calls)
     v_h          :      0.01s CPU      0.01s WALL (      10 calls)
     v_xc         :      2.44s CPU      2.49s WALL (      10 calls)
     mix_rho      :      0.03s CPU      0.05s WALL (       9 calls)

     Called by c_bands:
     init_us_2    :      0.15s CPU      0.15s WALL (     860 calls)
     init_us_2:cp :      0.15s CPU      0.15s WALL (     860 calls)
     cegterg      :     46.44s CPU     46.92s WALL (     387 calls)

     Called by sum_band:
     sum_band:wei :      0.24s CPU      0.27s WALL (       9 calls)
     sum_band:loo :      6.73s CPU      6.80s WALL (       9 calls)
     sum_band:buf :      0.02s CPU      0.02s WALL (     387 calls)
     sum_band:ini :      0.07s CPU      0.07s WALL (     387 calls)

     Called by *egterg:
     cdiaghg      :      2.54s CPU      2.57s WALL (    1859 calls)
     cegterg:over :      0.72s CPU      0.72s WALL (    1472 calls)
     cegterg:upda :      0.37s CPU      0.37s WALL (    1472 calls)
     cegterg:last :      0.63s CPU      0.63s WALL (    1052 calls)
     h_psi        :     43.39s CPU     43.84s WALL (    1902 calls)
     g_psi        :      0.06s CPU      0.06s WALL (    1472 calls)

     Called by h_psi:
     h_psi:calbec :      0.46s CPU      0.47s WALL (    1902 calls)
     vloc_psi     :     41.25s CPU     41.67s WALL (    1902 calls)
     add_vuspsi   :      0.42s CPU      0.43s WALL (    1902 calls)

     General routines
     calbec       :      0.67s CPU      0.68s WALL (    4234 calls)
     fft          :      0.56s CPU      0.59s WALL (     188 calls)
     ffts         :      0.01s CPU      0.01s WALL (      18 calls)
     fftw         :     44.78s CPU     45.26s WALL (  104072 calls)
 
     Parallel routines

     Extended Hubbard routines
     new_ns_v     :      0.17s CPU      0.18s WALL (       9 calls)
     vhpsi_v      :      1.22s CPU      1.23s WALL (    1902 calls)
 
     PWSCF        :   1m 7.97s CPU   1m10.77s WALL

 
   This run was terminated on:   8:14:33   5Jan2024            

=------------------------------------------------------------------------------=
   JOB DONE.
=------------------------------------------------------------------------------=
