
     Program PWSCF v.7.3 starts on  5Jan2024 at  8:14:36 

     This program is part of the open-source Quantum ESPRESSO suite
     for quantum simulation of materials; please cite
         "P. Giannozzi et al., J. Phys.:Condens. Matter 21 395502 (2009);
         "P. Giannozzi et al., J. Phys.:Condens. Matter 29 465901 (2017);
         "P. Giannozzi et al., J. Chem. Phys. 152 154105 (2020);
          URL http://www.quantum-espresso.org", 
     in publications or presentations arising from this work. More details at
     http://www.quantum-espresso.org/quote

     Parallel version (MPI), running on   128 processors

     MPI processes distributed on     2 nodes
     481900 MiB available memory on the printing compute node when the environment starts
 
     Reading input from MnO.acbn0.in

     Current dimensions of program PWSCF are:
     Max number of different atomic species (ntypx) = 10
     Max number of k-points (npk) =  40000
     Max angular momentum in pseudopotentials (lmaxx) =  4
     Message from routine setup:
     using ibrav=0 with symmetry is DISCOURAGED, use correct ibrav instead
     [opt_tetra]  Optimized tetrahedron method is used.
     -----------------------------------------------------------
     List of the nearest neighbors for inter-site interactions V
     -----------------------------------------------------------
     atom 1:  1,  atom 2:  4,    -1    -1     0
     atom 1:  1,  atom 2:  4,    -1     0    -1
     atom 1:  1,  atom 2:  3,    -1     0     0
     atom 1:  2,  atom 2:  4,    -1     0     0
     atom 1:  3,  atom 2:  2,    -1     0     0
     atom 1:  1,  atom 2:  4,     0    -1    -1
     atom 1:  1,  atom 2:  3,     0    -1     0
     atom 1:  2,  atom 2:  4,     0    -1     0
     atom 1:  3,  atom 2:  2,     0    -1     0
     atom 1:  1,  atom 2:  3,     0     0    -1
     atom 1:  2,  atom 2:  4,     0     0    -1
     atom 1:  3,  atom 2:  2,     0     0    -1
     atom 1:  2,  atom 2:  3,     0     0     1
     atom 1:  3,  atom 2:  1,     0     0     1
     atom 1:  4,  atom 2:  2,     0     0     1
     atom 1:  2,  atom 2:  3,     0     1     0
     atom 1:  3,  atom 2:  1,     0     1     0
     atom 1:  4,  atom 2:  2,     0     1     0
     atom 1:  4,  atom 2:  1,     0     1     1
     atom 1:  2,  atom 2:  3,     1     0     0
     atom 1:  3,  atom 2:  1,     1     0     0
     atom 1:  4,  atom 2:  2,     1     0     0
     atom 1:  4,  atom 2:  1,     1     0     1
     atom 1:  4,  atom 2:  1,     1     1     0
 
 
     K-points division:     npool     =      16
     R & G space division:  proc/nbgrp/npool/nimage =       8
     Subspace diagonalization in iterative solution of the eigenvalue problem:
     a serial algorithm will be used

 
     Parallelization info
     --------------------
     sticks:   dense  smooth     PW     G-vecs:    dense   smooth      PW
     Min         232     232     72                 5007     5007     864
     Max         233     233     73                 5008     5008     866
     Sum        1861    1861    581                40057    40057    6923
 
     Using Slab Decomposition
 


     bravais-lattice index     =            0
     lattice parameter (alat)  =      10.2900  a.u.
     unit-cell volume          =     296.5285 (a.u.)^3
     number of atoms/cell      =            4
     number of atomic types    =            3
     number of electrons       =        42.00
     number of Kohn-Sham states=           25
     kinetic-energy cutoff     =     100.0000  Ry
     charge density cutoff     =     400.0000  Ry
     scf convergence threshold =      1.0E-08
     mixing beta               =       0.7000
     number of iterations used =            8  plain     mixing
     Exchange-correlation= PBE
                           (   1   4   3   4   0   0   0)

     celldm(1)=  10.289967  celldm(2)=   0.000000  celldm(3)=   0.000000
     celldm(4)=   0.000000  celldm(5)=   0.000000  celldm(6)=   0.000000

     crystal axes: (cart. coord. in units of alat)
               a(1) = (   0.272169   0.680413   0.680413 )  
               a(2) = (   0.680413   0.272169   0.680413 )  
               a(3) = (   0.680413   0.680413   0.272169 )  

     reciprocal axes: (cart. coord. in units 2 pi/alat)
               b(1) = ( -1.428886  1.020629  1.020629 )  
               b(2) = (  1.020629 -1.428886  1.020629 )  
               b(3) = (  1.020629  1.020629 -1.428886 )  


     PseudoPot. # 1 for Mn read from file:
     ~/pseudo/pseudodojo/nc_sr/Mn.upf
     MD5 check sum: Not computed, couldn't open file
     Pseudo is Norm-conserving + core correction, Zval = 15.0
     Generated using ONCVPSP code by D. R. Hamann
     Using radial grid of 1464 points,  6 beta functions with: 
                l(1) =   0
                l(2) =   0
                l(3) =   1
                l(4) =   1
                l(5) =   2
                l(6) =   2

     PseudoPot. # 2 for Mn read from file:
     ~/pseudo/pseudodojo/nc_sr/Mn.upf
     MD5 check sum: Not computed, couldn't open file
     Pseudo is Norm-conserving + core correction, Zval = 15.0
     Generated using ONCVPSP code by D. R. Hamann
     Using radial grid of 1464 points,  6 beta functions with: 
                l(1) =   0
                l(2) =   0
                l(3) =   1
                l(4) =   1
                l(5) =   2
                l(6) =   2

     PseudoPot. # 3 for O  read from file:
     ~/pseudo/pseudodojo/nc_sr/O.upf
     MD5 check sum: Not computed, couldn't open file
     Pseudo is Norm-conserving + core correction, Zval =  6.0
     Generated using ONCVPSP code by D. R. Hamann
     Using radial grid of  936 points,  5 beta functions with: 
                l(1) =   0
                l(2) =   0
                l(3) =   1
                l(4) =   1
                l(5) =   2

     atomic species   valence    mass     pseudopotential
     MnA              15.00    54.93805     Mn( 1.00)
     MnB              15.00    54.93805     Mn( 1.00)
     O                 6.00    15.99940     O ( 1.00)

     Starting magnetic structure 
     atomic species   magnetization
     MnA            -0.200
     MnB             0.200
     O               0.000

     12 Sym. Ops., with inversion, found


                                    s                        frac. trans.

      isym =  1     identity                                     

 cryst.   s( 1) = (     1          0          0      )
                  (     0          1          0      )
                  (     0          0          1      )

 cart.    s( 1) = (  1.0000000 -0.0000000 -0.0000000 )
                  ( -0.0000000  1.0000000 -0.0000000 )
                  ( -0.0000000 -0.0000000  1.0000000 )


      isym =  2     180 deg rotation - cart. axis [1,-1,0]       

 cryst.   s( 2) = (     0         -1          0      )
                  (    -1          0          0      )
                  (     0          0         -1      )

 cart.    s( 2) = (  0.0000000 -1.0000000  0.0000000 )
                  ( -1.0000000  0.0000000  0.0000000 )
                  (  0.0000000  0.0000000 -1.0000000 )


      isym =  3     180 deg rotation - cart. axis [-1,0,1]       

 cryst.   s( 3) = (     0          0         -1      )
                  (     0         -1          0      )
                  (    -1          0          0      )

 cart.    s( 3) = (  0.0000000  0.0000000 -1.0000000 )
                  (  0.0000000 -1.0000000  0.0000000 )
                  ( -1.0000000  0.0000000  0.0000000 )


      isym =  4     180 deg rotation - cart. axis [0,1,-1]       

 cryst.   s( 4) = (    -1          0          0      )
                  (     0          0         -1      )
                  (     0         -1          0      )

 cart.    s( 4) = ( -1.0000000  0.0000000  0.0000000 )
                  (  0.0000000  0.0000000 -1.0000000 )
                  (  0.0000000 -1.0000000  0.0000000 )


      isym =  5     120 deg rotation - cart. axis [-1,-1,-1]     

 cryst.   s( 5) = (     0          0          1      )
                  (     1          0          0      )
                  (     0          1          0      )

 cart.    s( 5) = ( -0.0000000  1.0000000 -0.0000000 )
                  ( -0.0000000 -0.0000000  1.0000000 )
                  (  1.0000000 -0.0000000 -0.0000000 )


      isym =  6     120 deg rotation - cart. axis [1,1,1]        

 cryst.   s( 6) = (     0          1          0      )
                  (     0          0          1      )
                  (     1          0          0      )

 cart.    s( 6) = ( -0.0000000 -0.0000000  1.0000000 )
                  (  1.0000000 -0.0000000 -0.0000000 )
                  ( -0.0000000  1.0000000 -0.0000000 )


      isym =  7     inversion                                    

 cryst.   s( 7) = (    -1          0          0      )
                  (     0         -1          0      )
                  (     0          0         -1      )

 cart.    s( 7) = ( -1.0000000  0.0000000  0.0000000 )
                  (  0.0000000 -1.0000000  0.0000000 )
                  (  0.0000000  0.0000000 -1.0000000 )


      isym =  8     inv. 180 deg rotation - cart. axis [1,-1,0]  

 cryst.   s( 8) = (     0          1          0      )
                  (     1          0          0      )
                  (     0          0          1      )

 cart.    s( 8) = ( -0.0000000  1.0000000 -0.0000000 )
                  (  1.0000000 -0.0000000 -0.0000000 )
                  ( -0.0000000 -0.0000000  1.0000000 )


      isym =  9     inv. 180 deg rotation - cart. axis [-1,0,1]  

 cryst.   s( 9) = (     0          0          1      )
                  (     0          1          0      )
                  (     1          0          0      )

 cart.    s( 9) = ( -0.0000000 -0.0000000  1.0000000 )
                  ( -0.0000000  1.0000000 -0.0000000 )
                  (  1.0000000 -0.0000000 -0.0000000 )


      isym = 10     inv. 180 deg rotation - cart. axis [0,1,-1]  

 cryst.   s(10) = (     1          0          0      )
                  (     0          0          1      )
                  (     0          1          0      )

 cart.    s(10) = (  1.0000000 -0.0000000 -0.0000000 )
                  ( -0.0000000 -0.0000000  1.0000000 )
                  ( -0.0000000  1.0000000 -0.0000000 )


      isym = 11     inv. 120 deg rotation - cart. axis [-1,-1,-1]

 cryst.   s(11) = (     0          0         -1      )
                  (    -1          0          0      )
                  (     0         -1          0      )

 cart.    s(11) = (  0.0000000 -1.0000000  0.0000000 )
                  (  0.0000000  0.0000000 -1.0000000 )
                  ( -1.0000000  0.0000000  0.0000000 )


      isym = 12     inv. 120 deg rotation - cart. axis [1,1,1]   

 cryst.   s(12) = (     0         -1          0      )
                  (     0          0         -1      )
                  (    -1          0          0      )

 cart.    s(12) = (  0.0000000  0.0000000 -1.0000000 )
                  ( -1.0000000  0.0000000  0.0000000 )
                  (  0.0000000 -1.0000000  0.0000000 )


   Cartesian axes

     site n.     atom                  positions (alat units)
         1        MnA    tau(   1) = (   0.0000000   0.0000000   0.0000000  )
         2        MnB    tau(   2) = (   0.8164975   0.8164975   0.8164975  )
         3        O      tau(   3) = (   0.4082488   0.4082488   0.4082488  )
         4        O      tau(   4) = (   1.2247462   1.2247462   1.2247462  )

   Crystallographic axes

     site n.     atom                  positions (cryst. coord.)
         1        MnA    tau(   1) = (  0.0000000  0.0000000  0.0000000  )
         2        MnB    tau(   2) = (  0.5000000  0.5000000  0.5000000  )
         3        O      tau(   3) = (  0.2500000  0.2500000  0.2500000  )
         4        O      tau(   4) = (  0.7500000  0.7500000  0.7500000  )

     number of k points=   344 (tetrahedron method)
                       cart. coord. in units 2pi/alat
        k(    1) = (   0.0000000   0.0000000   0.0000000), wk =   0.0002963
        k(    2) = (   0.0680419   0.0680419  -0.0952591), wk =   0.0017778
        k(    3) = (   0.1360839   0.1360839  -0.1905182), wk =   0.0017778
        k(    4) = (   0.2041258   0.2041258  -0.2857773), wk =   0.0017778
        k(    5) = (   0.2721678   0.2721678  -0.3810364), wk =   0.0017778
        k(    6) = (   0.3402097   0.3402097  -0.4762955), wk =   0.0017778
        k(    7) = (   0.4082516   0.4082516  -0.5715546), wk =   0.0017778
        k(    8) = (   0.4762936   0.4762936  -0.6668137), wk =   0.0017778
        k(    9) = (   0.1360839  -0.0272172  -0.0272172), wk =   0.0017778
        k(   10) = (   0.2041258   0.0408248  -0.1224762), wk =   0.0035556
        k(   11) = (   0.2721678   0.1088667  -0.2177353), wk =   0.0035556
        k(   12) = (   0.3402097   0.1769087  -0.3129944), wk =   0.0035556
        k(   13) = (   0.4082516   0.2449506  -0.4082535), wk =   0.0035556
        k(   14) = (   0.4762936   0.3129925  -0.5035126), wk =   0.0035556
        k(   15) = (   0.5443355   0.3810345  -0.5987717), wk =   0.0035556
        k(   16) = (  -0.4082516  -0.5715527   0.7348556), wk =   0.0035556
        k(   17) = (  -0.3402097  -0.5035107   0.6395965), wk =   0.0035556
        k(   18) = (  -0.2721678  -0.4354688   0.5443374), wk =   0.0035556
        k(   19) = (  -0.2041258  -0.3674268   0.4490783), wk =   0.0035556
        k(   20) = (  -0.1360839  -0.2993849   0.3538192), wk =   0.0035556
        k(   21) = (  -0.0680419  -0.2313430   0.2585601), wk =   0.0035556
        k(   22) = (   0.0000000  -0.1633010   0.1633010), wk =   0.0017778
        k(   23) = (   0.2721678  -0.0544343  -0.0544343), wk =   0.0017778
        k(   24) = (   0.3402097   0.0136076  -0.1496934), wk =   0.0035556
        k(   25) = (   0.4082516   0.0816496  -0.2449525), wk =   0.0035556
        k(   26) = (   0.4762936   0.1496915  -0.3402116), wk =   0.0035556
        k(   27) = (   0.5443355   0.2177334  -0.4354707), wk =   0.0035556
        k(   28) = (   0.6123774   0.2857754  -0.5307298), wk =   0.0035556
        k(   29) = (  -0.3402097  -0.6668118   0.8028975), wk =   0.0035556
        k(   30) = (  -0.2721678  -0.5987698   0.7076384), wk =   0.0035556
        k(   31) = (  -0.2041258  -0.5307279   0.6123793), wk =   0.0035556
        k(   32) = (  -0.1360839  -0.4626859   0.5171203), wk =   0.0035556
        k(   33) = (  -0.0680419  -0.3946440   0.4218612), wk =   0.0035556
        k(   34) = (   0.0000000  -0.3266021   0.3266021), wk =   0.0017778
        k(   35) = (   0.4082516  -0.0816515  -0.0816515), wk =   0.0017778
        k(   36) = (   0.4762936  -0.0136095  -0.1769106), wk =   0.0035556
        k(   37) = (   0.5443355   0.0544324  -0.2721697), wk =   0.0035556
        k(   38) = (   0.6123774   0.1224743  -0.3674287), wk =   0.0035556
        k(   39) = (   0.6804194   0.1905163  -0.4626878), wk =   0.0035556
        k(   40) = (  -0.2721678  -0.7620709   0.8709395), wk =   0.0035556
        k(   41) = (  -0.2041258  -0.6940289   0.7756804), wk =   0.0035556
        k(   42) = (  -0.1360839  -0.6259870   0.6804213), wk =   0.0035556
        k(   43) = (  -0.0680419  -0.5579450   0.5851622), wk =   0.0035556
        k(   44) = (   0.0000000  -0.4899031   0.4899031), wk =   0.0017778
        k(   45) = (   0.5443355  -0.1088686  -0.1088686), wk =   0.0017778
        k(   46) = (   0.6123774  -0.0408267  -0.2041277), wk =   0.0035556
        k(   47) = (   0.6804194   0.0272153  -0.2993868), wk =   0.0035556
        k(   48) = (   0.7484613   0.0952572  -0.3946459), wk =   0.0035556
        k(   49) = (  -0.2041258  -0.8573299   0.9389814), wk =   0.0035556
        k(   50) = (  -0.1360839  -0.7892880   0.8437223), wk =   0.0035556
        k(   51) = (  -0.0680419  -0.7212461   0.7484632), wk =   0.0035556
        k(   52) = (  -0.0000000  -0.6532041   0.6532041), wk =   0.0017778
        k(   53) = (   0.6804194  -0.1360858  -0.1360858), wk =   0.0017778
        k(   54) = (   0.7484613  -0.0680438  -0.2313449), wk =   0.0035556
        k(   55) = (   0.8165033  -0.0000019  -0.3266040), wk =   0.0035556
        k(   56) = (  -0.1360839  -0.9525890   1.0070233), wk =   0.0035556
        k(   57) = (  -0.0680419  -0.8845471   0.9117643), wk =   0.0035556
        k(   58) = (  -0.0000000  -0.8165052   0.8165052), wk =   0.0017778
        k(   59) = (   0.8165033  -0.1633029  -0.1633029), wk =   0.0017778
        k(   60) = (   0.8845452  -0.0952610  -0.2585620), wk =   0.0035556
        k(   61) = (  -0.0680419  -1.0478481   1.0750653), wk =   0.0035556
        k(   62) = (   0.0000000  -0.9798062   0.9798062), wk =   0.0017778
        k(   63) = (   0.9525871  -0.1905201  -0.1905201), wk =   0.0017778
        k(   64) = (   0.0000000  -1.1431072   1.1431072), wk =   0.0017778
        k(   65) = (   0.0408248   0.0408248   0.0408248), wk =   0.0005926
        k(   66) = (   0.1088667   0.1088667  -0.0544343), wk =   0.0017778
        k(   67) = (   0.1769087   0.1769087  -0.1496934), wk =   0.0017778
        k(   68) = (   0.2449506   0.2449506  -0.2449525), wk =   0.0017778
        k(   69) = (   0.3129925   0.3129925  -0.3402116), wk =   0.0017778
        k(   70) = (   0.3810345   0.3810345  -0.4354707), wk =   0.0017778
        k(   71) = (   0.4490764   0.4490764  -0.5307298), wk =   0.0017778
        k(   72) = (  -0.5035107  -0.5035107   0.8028975), wk =   0.0017778
        k(   73) = (  -0.4354688  -0.4354688   0.7076384), wk =   0.0017778
        k(   74) = (  -0.3674268  -0.3674268   0.6123793), wk =   0.0017778
        k(   75) = (  -0.2993849  -0.2993849   0.5171203), wk =   0.0017778
        k(   76) = (  -0.2313430  -0.2313430   0.4218612), wk =   0.0017778
        k(   77) = (  -0.1633010  -0.1633010   0.3266021), wk =   0.0017778
        k(   78) = (  -0.0952591  -0.0952591   0.2313430), wk =   0.0017778
        k(   79) = (   0.1769087   0.0136076   0.0136076), wk =   0.0017778
        k(   80) = (   0.2449506   0.0816496  -0.0816515), wk =   0.0035556
        k(   81) = (   0.3129925   0.1496915  -0.1769106), wk =   0.0035556
        k(   82) = (   0.3810345   0.2177334  -0.2721697), wk =   0.0035556
        k(   83) = (   0.4490764   0.2857754  -0.3674287), wk =   0.0035556
        k(   84) = (   0.5171184   0.3538173  -0.4626878), wk =   0.0035556
        k(   85) = (  -0.4354688  -0.5987698   0.8709395), wk =   0.0035556
        k(   86) = (  -0.3674268  -0.5307279   0.7756804), wk =   0.0035556
        k(   87) = (  -0.2993849  -0.4626859   0.6804213), wk =   0.0035556
        k(   88) = (  -0.2313430  -0.3946440   0.5851622), wk =   0.0035556
        k(   89) = (  -0.1633010  -0.3266021   0.4899031), wk =   0.0035556
        k(   90) = (  -0.0952591  -0.2585601   0.3946440), wk =   0.0035556
        k(   91) = (  -0.0272172  -0.1905182   0.2993849), wk =   0.0035556
        k(   92) = (   0.3129925  -0.0136095  -0.0136095), wk =   0.0017778
        k(   93) = (   0.3810345   0.0544324  -0.1088686), wk =   0.0035556
        k(   94) = (   0.4490764   0.1224743  -0.2041277), wk =   0.0035556
        k(   95) = (   0.5171184   0.1905163  -0.2993868), wk =   0.0035556
        k(   96) = (   0.5851603   0.2585582  -0.3946459), wk =   0.0035556
        k(   97) = (  -0.3674268  -0.6940289   0.9389814), wk =   0.0035556
        k(   98) = (  -0.2993849  -0.6259870   0.8437223), wk =   0.0035556
        k(   99) = (  -0.2313430  -0.5579450   0.7484632), wk =   0.0035556
        k(  100) = (  -0.1633010  -0.4899031   0.6532041), wk =   0.0035556
        k(  101) = (  -0.0952591  -0.4218612   0.5579450), wk =   0.0035556
        k(  102) = (  -0.0272172  -0.3538192   0.4626859), wk =   0.0035556
        k(  103) = (   0.0408248  -0.2857773   0.3674268), wk =   0.0035556
        k(  104) = (   0.4490764  -0.0408267  -0.0408267), wk =   0.0017778
        k(  105) = (   0.5171184   0.0272153  -0.1360858), wk =   0.0035556
        k(  106) = (   0.5851603   0.0952572  -0.2313449), wk =   0.0035556
        k(  107) = (   0.6532022   0.1632991  -0.3266040), wk =   0.0035556
        k(  108) = (  -0.2993849  -0.7892880   1.0070233), wk =   0.0035556
        k(  109) = (  -0.2313430  -0.7212461   0.9117643), wk =   0.0035556
        k(  110) = (  -0.1633010  -0.6532041   0.8165052), wk =   0.0035556
        k(  111) = (  -0.0952591  -0.5851622   0.7212461), wk =   0.0035556
        k(  112) = (  -0.0272172  -0.5171203   0.6259870), wk =   0.0035556
        k(  113) = (   0.0408248  -0.4490783   0.5307279), wk =   0.0035556
        k(  114) = (   0.1088667  -0.3810364   0.4354688), wk =   0.0035556
        k(  115) = (   0.5851603  -0.0680438  -0.0680438), wk =   0.0017778
        k(  116) = (   0.6532022  -0.0000019  -0.1633029), wk =   0.0035556
        k(  117) = (   0.7212442   0.0680400  -0.2585620), wk =   0.0035556
        k(  118) = (  -0.2313430  -0.8845471   1.0750653), wk =   0.0035556
        k(  119) = (  -0.1633010  -0.8165052   0.9798062), wk =   0.0035556
        k(  120) = (  -0.0952591  -0.7484632   0.8845471), wk =   0.0035556
        k(  121) = (  -0.0272172  -0.6804213   0.7892880), wk =   0.0035556
        k(  122) = (   0.0408248  -0.6123793   0.6940289), wk =   0.0035556
        k(  123) = (   0.1088667  -0.5443374   0.5987698), wk =   0.0035556
        k(  124) = (   0.1769087  -0.4762955   0.5035107), wk =   0.0035556
        k(  125) = (   0.7212442  -0.0952610  -0.0952610), wk =   0.0017778
        k(  126) = (   0.7892861  -0.0272191  -0.1905201), wk =   0.0035556
        k(  127) = (  -0.1633010  -0.9798062   1.1431072), wk =   0.0035556
        k(  128) = (  -0.0952591  -0.9117643   1.0478481), wk =   0.0035556
        k(  129) = (  -0.0272172  -0.8437223   0.9525890), wk =   0.0035556
        k(  130) = (   0.0408248  -0.7756804   0.8573299), wk =   0.0035556
        k(  131) = (   0.1088667  -0.7076384   0.7620709), wk =   0.0035556
        k(  132) = (   0.1769087  -0.6395965   0.6668118), wk =   0.0035556
        k(  133) = (   0.2449506  -0.5715546   0.5715527), wk =   0.0035556
        k(  134) = (   0.8573280  -0.1224781  -0.1224781), wk =   0.0017778
        k(  135) = (  -0.0952591  -1.0750653   1.2111492), wk =   0.0035556
        k(  136) = (  -0.0272172  -1.0070233   1.1158901), wk =   0.0035556
        k(  137) = (   0.0408248  -0.9389814   1.0206310), wk =   0.0035556
        k(  138) = (   0.1088667  -0.8709395   0.9253719), wk =   0.0035556
        k(  139) = (   0.1769087  -0.8028975   0.8301128), wk =   0.0035556
        k(  140) = (   0.2449506  -0.7348556   0.7348537), wk =   0.0035556
        k(  141) = (   0.3129925  -0.6668137   0.6395946), wk =   0.0035556
        k(  142) = (  -1.0478462   0.2585620   0.2585620), wk =   0.0017778
        k(  143) = (  -0.9798043   0.3266040   0.1633029), wk =   0.0035556
        k(  144) = (  -0.9117624   0.3946459   0.0680438), wk =   0.0035556
        k(  145) = (  -0.8437204   0.4626878  -0.0272153), wk =   0.0035556
        k(  146) = (  -0.7756785   0.5307298  -0.1224743), wk =   0.0035556
        k(  147) = (  -0.7076365   0.5987717  -0.2177334), wk =   0.0035556
        k(  148) = (  -0.9117624   0.2313449   0.2313449), wk =   0.0017778
        k(  149) = (  -0.8437204   0.2993868   0.1360858), wk =   0.0035556
        k(  150) = (  -0.7756785   0.3674287   0.0408267), wk =   0.0035556
        k(  151) = (  -0.7076365   0.4354707  -0.0544324), wk =   0.0035556
        k(  152) = (  -0.6395946   0.5035126  -0.1496915), wk =   0.0035556
        k(  153) = (  -0.7756785   0.2041277   0.2041277), wk =   0.0017778
        k(  154) = (  -0.7076365   0.2721697   0.1088686), wk =   0.0035556
        k(  155) = (  -0.6395946   0.3402116   0.0136095), wk =   0.0035556
        k(  156) = (  -0.5715527   0.4082535  -0.0816496), wk =   0.0035556
        k(  157) = (  -0.6395946   0.1769106   0.1769106), wk =   0.0017778
        k(  158) = (  -0.5715527   0.2449525   0.0816515), wk =   0.0035556
        k(  159) = (  -0.5035107   0.3129944  -0.0136076), wk =   0.0035556
        k(  160) = (  -0.5035107   0.1496934   0.1496934), wk =   0.0017778
        k(  161) = (  -0.4354688   0.2177353   0.0544343), wk =   0.0035556
        k(  162) = (  -0.3674268   0.1224762   0.1224762), wk =   0.0017778
        k(  163) = (   0.0816496   0.0816496   0.0816496), wk =   0.0005926
        k(  164) = (   0.1496915   0.1496915  -0.0136095), wk =   0.0017778
        k(  165) = (   0.2177334   0.2177334  -0.1088686), wk =   0.0017778
        k(  166) = (   0.2857754   0.2857754  -0.2041277), wk =   0.0017778
        k(  167) = (   0.3538173   0.3538173  -0.2993868), wk =   0.0017778
        k(  168) = (   0.4218593   0.4218593  -0.3946459), wk =   0.0017778
        k(  169) = (  -0.5307279  -0.5307279   0.9389814), wk =   0.0017778
        k(  170) = (  -0.4626859  -0.4626859   0.8437223), wk =   0.0017778
        k(  171) = (  -0.3946440  -0.3946440   0.7484632), wk =   0.0017778
        k(  172) = (  -0.3266021  -0.3266021   0.6532041), wk =   0.0017778
        k(  173) = (  -0.2585601  -0.2585601   0.5579450), wk =   0.0017778
        k(  174) = (  -0.1905182  -0.1905182   0.4626859), wk =   0.0017778
        k(  175) = (   0.2177334   0.0544324   0.0544324), wk =   0.0017778
        k(  176) = (   0.2857754   0.1224743  -0.0408267), wk =   0.0035556
        k(  177) = (   0.3538173   0.1905163  -0.1360858), wk =   0.0035556
        k(  178) = (   0.4218593   0.2585582  -0.2313449), wk =   0.0035556
        k(  179) = (   0.4899012   0.3266002  -0.3266040), wk =   0.0035556
        k(  180) = (  -0.4626859  -0.6259870   1.0070233), wk =   0.0035556
        k(  181) = (  -0.3946440  -0.5579450   0.9117643), wk =   0.0035556
        k(  182) = (  -0.3266021  -0.4899031   0.8165052), wk =   0.0035556
        k(  183) = (  -0.2585601  -0.4218612   0.7212461), wk =   0.0035556
        k(  184) = (  -0.1905182  -0.3538192   0.6259870), wk =   0.0035556
        k(  185) = (  -0.1224762  -0.2857773   0.5307279), wk =   0.0035556
        k(  186) = (   0.3538173   0.0272153   0.0272153), wk =   0.0017778
        k(  187) = (   0.4218593   0.0952572  -0.0680438), wk =   0.0035556
        k(  188) = (   0.4899012   0.1632991  -0.1633029), wk =   0.0035556
        k(  189) = (   0.5579431   0.2313411  -0.2585620), wk =   0.0035556
        k(  190) = (  -0.3946440  -0.7212461   1.0750653), wk =   0.0035556
        k(  191) = (  -0.3266021  -0.6532041   0.9798062), wk =   0.0035556
        k(  192) = (  -0.2585601  -0.5851622   0.8845471), wk =   0.0035556
        k(  193) = (  -0.1905182  -0.5171203   0.7892880), wk =   0.0035556
        k(  194) = (  -0.1224762  -0.4490783   0.6940289), wk =   0.0035556
        k(  195) = (  -0.0544343  -0.3810364   0.5987698), wk =   0.0035556
        k(  196) = (   0.4899012  -0.0000019  -0.0000019), wk =   0.0017778
        k(  197) = (   0.5579431   0.0680400  -0.0952610), wk =   0.0035556
        k(  198) = (   0.6259851   0.1360820  -0.1905201), wk =   0.0035556
        k(  199) = (  -0.3266021  -0.8165052   1.1431072), wk =   0.0035556
        k(  200) = (  -0.2585601  -0.7484632   1.0478481), wk =   0.0035556
        k(  201) = (  -0.1905182  -0.6804213   0.9525890), wk =   0.0035556
        k(  202) = (  -0.1224762  -0.6123793   0.8573299), wk =   0.0035556
        k(  203) = (  -0.0544343  -0.5443374   0.7620709), wk =   0.0035556
        k(  204) = (   0.0136076  -0.4762955   0.6668118), wk =   0.0035556
        k(  205) = (   0.6259851  -0.0272191  -0.0272191), wk =   0.0017778
        k(  206) = (   0.6940270   0.0408229  -0.1224781), wk =   0.0035556
        k(  207) = (  -0.2585601  -0.9117643   1.2111492), wk =   0.0035556
        k(  208) = (  -0.1905182  -0.8437223   1.1158901), wk =   0.0035556
        k(  209) = (  -0.1224762  -0.7756804   1.0206310), wk =   0.0035556
        k(  210) = (  -0.0544343  -0.7076384   0.9253719), wk =   0.0035556
        k(  211) = (   0.0136076  -0.6395965   0.8301128), wk =   0.0035556
        k(  212) = (   0.0816496  -0.5715546   0.7348537), wk =   0.0035556
        k(  213) = (   0.7620690  -0.0544362  -0.0544362), wk =   0.0017778
        k(  214) = (  -0.1905182  -1.0070233   1.2791911), wk =   0.0035556
        k(  215) = (  -0.1224762  -0.9389814   1.1839320), wk =   0.0035556
        k(  216) = (  -0.0544343  -0.8709395   1.0886729), wk =   0.0035556
        k(  217) = (   0.0136076  -0.8028975   0.9934138), wk =   0.0035556
        k(  218) = (   0.0816496  -0.7348556   0.8981547), wk =   0.0035556
        k(  219) = (   0.1496915  -0.6668137   0.8028956), wk =   0.0035556
        k(  220) = (  -1.1431053   0.3266040   0.3266040), wk =   0.0017778
        k(  221) = (  -1.0750634   0.3946459   0.2313449), wk =   0.0035556
        k(  222) = (  -1.0070214   0.4626878   0.1360858), wk =   0.0035556
        k(  223) = (  -0.9389795   0.5307298   0.0408267), wk =   0.0035556
        k(  224) = (  -0.8709376   0.5987717  -0.0544324), wk =   0.0035556
        k(  225) = (  -1.0070214   0.2993868   0.2993868), wk =   0.0017778
        k(  226) = (  -0.9389795   0.3674287   0.2041277), wk =   0.0035556
        k(  227) = (  -0.8709376   0.4354707   0.1088686), wk =   0.0035556
        k(  228) = (  -0.8028956   0.5035126   0.0136095), wk =   0.0035556
        k(  229) = (  -0.8709376   0.2721697   0.2721697), wk =   0.0017778
        k(  230) = (  -0.8028956   0.3402116   0.1769106), wk =   0.0035556
        k(  231) = (  -0.7348537   0.4082535   0.0816515), wk =   0.0035556
        k(  232) = (  -0.7348537   0.2449525   0.2449525), wk =   0.0017778
        k(  233) = (  -0.6668118   0.3129944   0.1496934), wk =   0.0035556
        k(  234) = (  -0.5987698   0.2177353   0.2177353), wk =   0.0017778
        k(  235) = (   0.1224743   0.1224743   0.1224743), wk =   0.0005926
        k(  236) = (   0.1905163   0.1905163   0.0272153), wk =   0.0017778
        k(  237) = (   0.2585582   0.2585582  -0.0680438), wk =   0.0017778
        k(  238) = (   0.3266002   0.3266002  -0.1633029), wk =   0.0017778
        k(  239) = (   0.3946421   0.3946421  -0.2585620), wk =   0.0017778
        k(  240) = (  -0.5579450  -0.5579450   1.0750653), wk =   0.0017778
        k(  241) = (  -0.4899031  -0.4899031   0.9798062), wk =   0.0017778
        k(  242) = (  -0.4218612  -0.4218612   0.8845471), wk =   0.0017778
        k(  243) = (  -0.3538192  -0.3538192   0.7892880), wk =   0.0017778
        k(  244) = (  -0.2857773  -0.2857773   0.6940289), wk =   0.0017778
        k(  245) = (   0.2585582   0.0952572   0.0952572), wk =   0.0017778
        k(  246) = (   0.3266002   0.1632991  -0.0000019), wk =   0.0035556
        k(  247) = (   0.3946421   0.2313411  -0.0952610), wk =   0.0035556
        k(  248) = (   0.4626840   0.2993830  -0.1905201), wk =   0.0035556
        k(  249) = (  -0.4899031  -0.6532041   1.1431072), wk =   0.0035556
        k(  250) = (  -0.4218612  -0.5851622   1.0478481), wk =   0.0035556
        k(  251) = (  -0.3538192  -0.5171203   0.9525890), wk =   0.0035556
        k(  252) = (  -0.2857773  -0.4490783   0.8573299), wk =   0.0035556
        k(  253) = (  -0.2177353  -0.3810364   0.7620709), wk =   0.0035556
        k(  254) = (   0.3946421   0.0680400   0.0680400), wk =   0.0017778
        k(  255) = (   0.4626840   0.1360820  -0.0272191), wk =   0.0035556
        k(  256) = (   0.5307260   0.2041239  -0.1224781), wk =   0.0035556
        k(  257) = (  -0.4218612  -0.7484632   1.2111492), wk =   0.0035556
        k(  258) = (  -0.3538192  -0.6804213   1.1158901), wk =   0.0035556
        k(  259) = (  -0.2857773  -0.6123793   1.0206310), wk =   0.0035556
        k(  260) = (  -0.2177353  -0.5443374   0.9253719), wk =   0.0035556
        k(  261) = (  -0.1496934  -0.4762955   0.8301128), wk =   0.0035556
        k(  262) = (   0.5307260   0.0408229   0.0408229), wk =   0.0017778
        k(  263) = (   0.5987679   0.1088648  -0.0544362), wk =   0.0035556
        k(  264) = (  -0.3538192  -0.8437223   1.2791911), wk =   0.0035556
        k(  265) = (  -0.2857773  -0.7756804   1.1839320), wk =   0.0035556
        k(  266) = (  -0.2177353  -0.7076384   1.0886729), wk =   0.0035556
        k(  267) = (  -0.1496934  -0.6395965   0.9934138), wk =   0.0035556
        k(  268) = (  -0.0816515  -0.5715546   0.8981547), wk =   0.0035556
        k(  269) = (   0.6668099   0.0136057   0.0136057), wk =   0.0017778
        k(  270) = (  -0.2857773  -0.9389814   1.3472330), wk =   0.0035556
        k(  271) = (  -0.2177353  -0.8709395   1.2519739), wk =   0.0035556
        k(  272) = (  -0.1496934  -0.8028975   1.1567149), wk =   0.0035556
        k(  273) = (  -0.0816515  -0.7348556   1.0614558), wk =   0.0035556
        k(  274) = (  -0.0136095  -0.6668137   0.9661967), wk =   0.0035556
        k(  275) = (  -1.2383644   0.3946459   0.3946459), wk =   0.0017778
        k(  276) = (  -1.1703225   0.4626878   0.2993868), wk =   0.0035556
        k(  277) = (  -1.1022805   0.5307298   0.2041277), wk =   0.0035556
        k(  278) = (  -1.0342386   0.5987717   0.1088686), wk =   0.0035556
        k(  279) = (  -1.1022805   0.3674287   0.3674287), wk =   0.0017778
        k(  280) = (  -1.0342386   0.4354707   0.2721697), wk =   0.0035556
        k(  281) = (  -0.9661967   0.5035126   0.1769106), wk =   0.0035556
        k(  282) = (  -0.9661967   0.3402116   0.3402116), wk =   0.0017778
        k(  283) = (  -0.8981547   0.4082535   0.2449525), wk =   0.0035556
        k(  284) = (  -0.8301128   0.3129944   0.3129944), wk =   0.0017778
        k(  285) = (   0.1632991   0.1632991   0.1632991), wk =   0.0005926
        k(  286) = (   0.2313411   0.2313411   0.0680400), wk =   0.0017778
        k(  287) = (   0.2993830   0.2993830  -0.0272191), wk =   0.0017778
        k(  288) = (   0.3674249   0.3674249  -0.1224781), wk =   0.0017778
        k(  289) = (  -0.5851622  -0.5851622   1.2111492), wk =   0.0017778
        k(  290) = (  -0.5171203  -0.5171203   1.1158901), wk =   0.0017778
        k(  291) = (  -0.4490783  -0.4490783   1.0206310), wk =   0.0017778
        k(  292) = (  -0.3810364  -0.3810364   0.9253719), wk =   0.0017778
        k(  293) = (   0.2993830   0.1360820   0.1360820), wk =   0.0017778
        k(  294) = (   0.3674249   0.2041239   0.0408229), wk =   0.0035556
        k(  295) = (   0.4354669   0.2721659  -0.0544362), wk =   0.0035556
        k(  296) = (  -0.5171203  -0.6804213   1.2791911), wk =   0.0035556
        k(  297) = (  -0.4490783  -0.6123793   1.1839320), wk =   0.0035556
        k(  298) = (  -0.3810364  -0.5443374   1.0886729), wk =   0.0035556
        k(  299) = (  -0.3129944  -0.4762955   0.9934138), wk =   0.0035556
        k(  300) = (   0.4354669   0.1088648   0.1088648), wk =   0.0017778
        k(  301) = (   0.5035088   0.1769068   0.0136057), wk =   0.0035556
        k(  302) = (  -0.4490783  -0.7756804   1.3472330), wk =   0.0035556
        k(  303) = (  -0.3810364  -0.7076384   1.2519739), wk =   0.0035556
        k(  304) = (  -0.3129944  -0.6395965   1.1567149), wk =   0.0035556
        k(  305) = (  -0.2449525  -0.5715546   1.0614558), wk =   0.0035556
        k(  306) = (   0.5715508   0.0816477   0.0816477), wk =   0.0017778
        k(  307) = (  -0.3810364  -0.8709395   1.4152750), wk =   0.0035556
        k(  308) = (  -0.3129944  -0.8028975   1.3200159), wk =   0.0035556
        k(  309) = (  -0.2449525  -0.7348556   1.2247568), wk =   0.0035556
        k(  310) = (  -0.1769106  -0.6668137   1.1294977), wk =   0.0035556
        k(  311) = (  -1.3336235   0.4626878   0.4626878), wk =   0.0017778
        k(  312) = (  -1.2655816   0.5307298   0.3674287), wk =   0.0035556
        k(  313) = (  -1.1975396   0.5987717   0.2721697), wk =   0.0035556
        k(  314) = (  -1.1975396   0.4354707   0.4354707), wk =   0.0017778
        k(  315) = (  -1.1294977   0.5035126   0.3402116), wk =   0.0035556
        k(  316) = (  -1.0614558   0.4082535   0.4082535), wk =   0.0017778
        k(  317) = (   0.2041239   0.2041239   0.2041239), wk =   0.0005926
        k(  318) = (   0.2721659   0.2721659   0.1088648), wk =   0.0017778
        k(  319) = (   0.3402078   0.3402078   0.0136057), wk =   0.0017778
        k(  320) = (  -0.6123793  -0.6123793   1.3472330), wk =   0.0017778
        k(  321) = (  -0.5443374  -0.5443374   1.2519739), wk =   0.0017778
        k(  322) = (  -0.4762955  -0.4762955   1.1567149), wk =   0.0017778
        k(  323) = (   0.3402078   0.1769068   0.1769068), wk =   0.0017778
        k(  324) = (   0.4082497   0.2449487   0.0816477), wk =   0.0035556
        k(  325) = (  -0.5443374  -0.7076384   1.4152750), wk =   0.0035556
        k(  326) = (  -0.4762955  -0.6395965   1.3200159), wk =   0.0035556
        k(  327) = (  -0.4082535  -0.5715546   1.2247568), wk =   0.0035556
        k(  328) = (   0.4762917   0.1496896   0.1496896), wk =   0.0017778
        k(  329) = (  -0.4762955  -0.8028975   1.4833169), wk =   0.0035556
        k(  330) = (  -0.4082535  -0.7348556   1.3880578), wk =   0.0035556
        k(  331) = (  -0.3402116  -0.6668137   1.2927987), wk =   0.0035556
        k(  332) = (  -1.4288826   0.5307298   0.5307298), wk =   0.0017778
        k(  333) = (  -1.3608407   0.5987717   0.4354707), wk =   0.0035556
        k(  334) = (  -1.2927987   0.5035126   0.5035126), wk =   0.0017778
        k(  335) = (   0.2449487   0.2449487   0.2449487), wk =   0.0005926
        k(  336) = (   0.3129906   0.3129906   0.1496896), wk =   0.0017778
        k(  337) = (  -0.6395965  -0.6395965   1.4833169), wk =   0.0017778
        k(  338) = (  -0.5715546  -0.5715546   1.3880578), wk =   0.0017778
        k(  339) = (   0.3810326   0.2177315   0.2177315), wk =   0.0017778
        k(  340) = (  -0.5715546  -0.7348556   1.5513589), wk =   0.0035556
        k(  341) = (  -0.5035126  -0.6668137   1.4560998), wk =   0.0035556
        k(  342) = (  -1.5241417   0.5987717   0.5987717), wk =   0.0017778
        k(  343) = (   0.2857735   0.2857735   0.2857735), wk =   0.0005926
        k(  344) = (  -0.6668137  -0.6668137   1.6194008), wk =   0.0017778

                       cryst. coord.
        k(    1) = (   0.0000000   0.0000000   0.0000000), wk =   0.0002963
        k(    2) = (  -0.0000000  -0.0000000   0.0666667), wk =   0.0017778
        k(    3) = (  -0.0000000  -0.0000000   0.1333333), wk =   0.0017778
        k(    4) = (  -0.0000000  -0.0000000   0.2000000), wk =   0.0017778
        k(    5) = (  -0.0000000  -0.0000000   0.2666667), wk =   0.0017778
        k(    6) = (  -0.0000000  -0.0000000   0.3333333), wk =   0.0017778
        k(    7) = (  -0.0000000  -0.0000000   0.4000000), wk =   0.0017778
        k(    8) = (  -0.0000000  -0.0000000   0.4666667), wk =   0.0017778
        k(    9) = (  -0.0000000   0.0666667   0.0666667), wk =   0.0017778
        k(   10) = (  -0.0000000   0.0666667   0.1333333), wk =   0.0035556
        k(   11) = (  -0.0000000   0.0666667   0.2000000), wk =   0.0035556
        k(   12) = (  -0.0000000   0.0666667   0.2666667), wk =   0.0035556
        k(   13) = (  -0.0000000   0.0666667   0.3333333), wk =   0.0035556
        k(   14) = (  -0.0000000   0.0666667   0.4000000), wk =   0.0035556
        k(   15) = (  -0.0000000   0.0666667   0.4666667), wk =   0.0035556
        k(   16) = (   0.0000000   0.0666667  -0.4666667), wk =   0.0035556
        k(   17) = (   0.0000000   0.0666667  -0.4000000), wk =   0.0035556
        k(   18) = (   0.0000000   0.0666667  -0.3333333), wk =   0.0035556
        k(   19) = (   0.0000000   0.0666667  -0.2666667), wk =   0.0035556
        k(   20) = (  -0.0000000   0.0666667  -0.2000000), wk =   0.0035556
        k(   21) = (  -0.0000000   0.0666667  -0.1333333), wk =   0.0035556
        k(   22) = (   0.0000000   0.0666667  -0.0666667), wk =   0.0017778
        k(   23) = (  -0.0000000   0.1333333   0.1333333), wk =   0.0017778
        k(   24) = (  -0.0000000   0.1333333   0.2000000), wk =   0.0035556
        k(   25) = (  -0.0000000   0.1333333   0.2666667), wk =   0.0035556
        k(   26) = (  -0.0000000   0.1333333   0.3333333), wk =   0.0035556
        k(   27) = (  -0.0000000   0.1333333   0.4000000), wk =   0.0035556
        k(   28) = (  -0.0000000   0.1333333   0.4666667), wk =   0.0035556
        k(   29) = (   0.0000000   0.1333333  -0.4666667), wk =   0.0035556
        k(   30) = (   0.0000000   0.1333333  -0.4000000), wk =   0.0035556
        k(   31) = (   0.0000000   0.1333333  -0.3333333), wk =   0.0035556
        k(   32) = (   0.0000000   0.1333333  -0.2666667), wk =   0.0035556
        k(   33) = (   0.0000000   0.1333333  -0.2000000), wk =   0.0035556
        k(   34) = (   0.0000000   0.1333333  -0.1333333), wk =   0.0017778
        k(   35) = (  -0.0000000   0.2000000   0.2000000), wk =   0.0017778
        k(   36) = (  -0.0000000   0.2000000   0.2666667), wk =   0.0035556
        k(   37) = (  -0.0000000   0.2000000   0.3333333), wk =   0.0035556
        k(   38) = (  -0.0000000   0.2000000   0.4000000), wk =   0.0035556
        k(   39) = (  -0.0000000   0.2000000   0.4666667), wk =   0.0035556
        k(   40) = (   0.0000000   0.2000000  -0.4666667), wk =   0.0035556
        k(   41) = (  -0.0000000   0.2000000  -0.4000000), wk =   0.0035556
        k(   42) = (   0.0000000   0.2000000  -0.3333333), wk =   0.0035556
        k(   43) = (   0.0000000   0.2000000  -0.2666667), wk =   0.0035556
        k(   44) = (  -0.0000000   0.2000000  -0.2000000), wk =   0.0017778
        k(   45) = (  -0.0000000   0.2666667   0.2666667), wk =   0.0017778
        k(   46) = (  -0.0000000   0.2666667   0.3333333), wk =   0.0035556
        k(   47) = (  -0.0000000   0.2666667   0.4000000), wk =   0.0035556
        k(   48) = (  -0.0000000   0.2666667   0.4666667), wk =   0.0035556
        k(   49) = (   0.0000000   0.2666667  -0.4666667), wk =   0.0035556
        k(   50) = (   0.0000000   0.2666667  -0.4000000), wk =   0.0035556
        k(   51) = (   0.0000000   0.2666667  -0.3333333), wk =   0.0035556
        k(   52) = (   0.0000000   0.2666667  -0.2666667), wk =   0.0017778
        k(   53) = (  -0.0000000   0.3333333   0.3333333), wk =   0.0017778
        k(   54) = (  -0.0000000   0.3333333   0.4000000), wk =   0.0035556
        k(   55) = (  -0.0000000   0.3333333   0.4666667), wk =   0.0035556
        k(   56) = (   0.0000000   0.3333333  -0.4666667), wk =   0.0035556
        k(   57) = (   0.0000000   0.3333333  -0.4000000), wk =   0.0035556
        k(   58) = (   0.0000000   0.3333333  -0.3333333), wk =   0.0017778
        k(   59) = (  -0.0000000   0.4000000   0.4000000), wk =   0.0017778
        k(   60) = (  -0.0000000   0.4000000   0.4666667), wk =   0.0035556
        k(   61) = (   0.0000000   0.4000000  -0.4666667), wk =   0.0035556
        k(   62) = (   0.0000000   0.4000000  -0.4000000), wk =   0.0017778
        k(   63) = (  -0.0000000   0.4666667   0.4666667), wk =   0.0017778
        k(   64) = (   0.0000000   0.4666667  -0.4666667), wk =   0.0017778
        k(   65) = (   0.0666667   0.0666667   0.0666667), wk =   0.0005926
        k(   66) = (   0.0666667   0.0666667   0.1333333), wk =   0.0017778
        k(   67) = (   0.0666667   0.0666667   0.2000000), wk =   0.0017778
        k(   68) = (   0.0666667   0.0666667   0.2666667), wk =   0.0017778
        k(   69) = (   0.0666667   0.0666667   0.3333333), wk =   0.0017778
        k(   70) = (   0.0666667   0.0666667   0.4000000), wk =   0.0017778
        k(   71) = (   0.0666667   0.0666667   0.4666667), wk =   0.0017778
        k(   72) = (   0.0666667   0.0666667  -0.4666667), wk =   0.0017778
        k(   73) = (   0.0666667   0.0666667  -0.4000000), wk =   0.0017778
        k(   74) = (   0.0666667   0.0666667  -0.3333333), wk =   0.0017778
        k(   75) = (   0.0666667   0.0666667  -0.2666667), wk =   0.0017778
        k(   76) = (   0.0666667   0.0666667  -0.2000000), wk =   0.0017778
        k(   77) = (   0.0666667   0.0666667  -0.1333333), wk =   0.0017778
        k(   78) = (   0.0666667   0.0666667  -0.0666667), wk =   0.0017778
        k(   79) = (   0.0666667   0.1333333   0.1333333), wk =   0.0017778
        k(   80) = (   0.0666667   0.1333333   0.2000000), wk =   0.0035556
        k(   81) = (   0.0666667   0.1333333   0.2666667), wk =   0.0035556
        k(   82) = (   0.0666667   0.1333333   0.3333333), wk =   0.0035556
        k(   83) = (   0.0666667   0.1333333   0.4000000), wk =   0.0035556
        k(   84) = (   0.0666667   0.1333333   0.4666667), wk =   0.0035556
        k(   85) = (   0.0666667   0.1333333  -0.4666667), wk =   0.0035556
        k(   86) = (   0.0666667   0.1333333  -0.4000000), wk =   0.0035556
        k(   87) = (   0.0666667   0.1333333  -0.3333333), wk =   0.0035556
        k(   88) = (   0.0666667   0.1333333  -0.2666667), wk =   0.0035556
        k(   89) = (   0.0666667   0.1333333  -0.2000000), wk =   0.0035556
        k(   90) = (   0.0666667   0.1333333  -0.1333333), wk =   0.0035556
        k(   91) = (   0.0666667   0.1333333  -0.0666667), wk =   0.0035556
        k(   92) = (   0.0666667   0.2000000   0.2000000), wk =   0.0017778
        k(   93) = (   0.0666667   0.2000000   0.2666667), wk =   0.0035556
        k(   94) = (   0.0666667   0.2000000   0.3333333), wk =   0.0035556
        k(   95) = (   0.0666667   0.2000000   0.4000000), wk =   0.0035556
        k(   96) = (   0.0666667   0.2000000   0.4666667), wk =   0.0035556
        k(   97) = (   0.0666667   0.2000000  -0.4666667), wk =   0.0035556
        k(   98) = (   0.0666667   0.2000000  -0.4000000), wk =   0.0035556
        k(   99) = (   0.0666667   0.2000000  -0.3333333), wk =   0.0035556
        k(  100) = (   0.0666667   0.2000000  -0.2666667), wk =   0.0035556
        k(  101) = (   0.0666667   0.2000000  -0.2000000), wk =   0.0035556
        k(  102) = (   0.0666667   0.2000000  -0.1333333), wk =   0.0035556
        k(  103) = (   0.0666667   0.2000000  -0.0666667), wk =   0.0035556
        k(  104) = (   0.0666667   0.2666667   0.2666667), wk =   0.0017778
        k(  105) = (   0.0666667   0.2666667   0.3333333), wk =   0.0035556
        k(  106) = (   0.0666667   0.2666667   0.4000000), wk =   0.0035556
        k(  107) = (   0.0666667   0.2666667   0.4666667), wk =   0.0035556
        k(  108) = (   0.0666667   0.2666667  -0.4666667), wk =   0.0035556
        k(  109) = (   0.0666667   0.2666667  -0.4000000), wk =   0.0035556
        k(  110) = (   0.0666667   0.2666667  -0.3333333), wk =   0.0035556
        k(  111) = (   0.0666667   0.2666667  -0.2666667), wk =   0.0035556
        k(  112) = (   0.0666667   0.2666667  -0.2000000), wk =   0.0035556
        k(  113) = (   0.0666667   0.2666667  -0.1333333), wk =   0.0035556
        k(  114) = (   0.0666667   0.2666667  -0.0666667), wk =   0.0035556
        k(  115) = (   0.0666667   0.3333333   0.3333333), wk =   0.0017778
        k(  116) = (   0.0666667   0.3333333   0.4000000), wk =   0.0035556
        k(  117) = (   0.0666667   0.3333333   0.4666667), wk =   0.0035556
        k(  118) = (   0.0666667   0.3333333  -0.4666667), wk =   0.0035556
        k(  119) = (   0.0666667   0.3333333  -0.4000000), wk =   0.0035556
        k(  120) = (   0.0666667   0.3333333  -0.3333333), wk =   0.0035556
        k(  121) = (   0.0666667   0.3333333  -0.2666667), wk =   0.0035556
        k(  122) = (   0.0666667   0.3333333  -0.2000000), wk =   0.0035556
        k(  123) = (   0.0666667   0.3333333  -0.1333333), wk =   0.0035556
        k(  124) = (   0.0666667   0.3333333  -0.0666667), wk =   0.0035556
        k(  125) = (   0.0666667   0.4000000   0.4000000), wk =   0.0017778
        k(  126) = (   0.0666667   0.4000000   0.4666667), wk =   0.0035556
        k(  127) = (   0.0666667   0.4000000  -0.4666667), wk =   0.0035556
        k(  128) = (   0.0666667   0.4000000  -0.4000000), wk =   0.0035556
        k(  129) = (   0.0666667   0.4000000  -0.3333333), wk =   0.0035556
        k(  130) = (   0.0666667   0.4000000  -0.2666667), wk =   0.0035556
        k(  131) = (   0.0666667   0.4000000  -0.2000000), wk =   0.0035556
        k(  132) = (   0.0666667   0.4000000  -0.1333333), wk =   0.0035556
        k(  133) = (   0.0666667   0.4000000  -0.0666667), wk =   0.0035556
        k(  134) = (   0.0666667   0.4666667   0.4666667), wk =   0.0017778
        k(  135) = (   0.0666667   0.4666667  -0.4666667), wk =   0.0035556
        k(  136) = (   0.0666667   0.4666667  -0.4000000), wk =   0.0035556
        k(  137) = (   0.0666667   0.4666667  -0.3333333), wk =   0.0035556
        k(  138) = (   0.0666667   0.4666667  -0.2666667), wk =   0.0035556
        k(  139) = (   0.0666667   0.4666667  -0.2000000), wk =   0.0035556
        k(  140) = (   0.0666667   0.4666667  -0.1333333), wk =   0.0035556
        k(  141) = (   0.0666667   0.4666667  -0.0666667), wk =   0.0035556
        k(  142) = (   0.0666667  -0.4666667  -0.4666667), wk =   0.0017778
        k(  143) = (   0.0666667  -0.4666667  -0.4000000), wk =   0.0035556
        k(  144) = (   0.0666667  -0.4666667  -0.3333333), wk =   0.0035556
        k(  145) = (   0.0666667  -0.4666667  -0.2666667), wk =   0.0035556
        k(  146) = (   0.0666667  -0.4666667  -0.2000000), wk =   0.0035556
        k(  147) = (   0.0666667  -0.4666667  -0.1333333), wk =   0.0035556
        k(  148) = (   0.0666667  -0.4000000  -0.4000000), wk =   0.0017778
        k(  149) = (   0.0666667  -0.4000000  -0.3333333), wk =   0.0035556
        k(  150) = (   0.0666667  -0.4000000  -0.2666667), wk =   0.0035556
        k(  151) = (   0.0666667  -0.4000000  -0.2000000), wk =   0.0035556
        k(  152) = (   0.0666667  -0.4000000  -0.1333333), wk =   0.0035556
        k(  153) = (   0.0666667  -0.3333333  -0.3333333), wk =   0.0017778
        k(  154) = (   0.0666667  -0.3333333  -0.2666667), wk =   0.0035556
        k(  155) = (   0.0666667  -0.3333333  -0.2000000), wk =   0.0035556
        k(  156) = (   0.0666667  -0.3333333  -0.1333333), wk =   0.0035556
        k(  157) = (   0.0666667  -0.2666667  -0.2666667), wk =   0.0017778
        k(  158) = (   0.0666667  -0.2666667  -0.2000000), wk =   0.0035556
        k(  159) = (   0.0666667  -0.2666667  -0.1333333), wk =   0.0035556
        k(  160) = (   0.0666667  -0.2000000  -0.2000000), wk =   0.0017778
        k(  161) = (   0.0666667  -0.2000000  -0.1333333), wk =   0.0035556
        k(  162) = (   0.0666667  -0.1333333  -0.1333333), wk =   0.0017778
        k(  163) = (   0.1333333   0.1333333   0.1333333), wk =   0.0005926
        k(  164) = (   0.1333333   0.1333333   0.2000000), wk =   0.0017778
        k(  165) = (   0.1333333   0.1333333   0.2666667), wk =   0.0017778
        k(  166) = (   0.1333333   0.1333333   0.3333333), wk =   0.0017778
        k(  167) = (   0.1333333   0.1333333   0.4000000), wk =   0.0017778
        k(  168) = (   0.1333333   0.1333333   0.4666667), wk =   0.0017778
        k(  169) = (   0.1333333   0.1333333  -0.4666667), wk =   0.0017778
        k(  170) = (   0.1333333   0.1333333  -0.4000000), wk =   0.0017778
        k(  171) = (   0.1333333   0.1333333  -0.3333333), wk =   0.0017778
        k(  172) = (   0.1333333   0.1333333  -0.2666667), wk =   0.0017778
        k(  173) = (   0.1333333   0.1333333  -0.2000000), wk =   0.0017778
        k(  174) = (   0.1333333   0.1333333  -0.1333333), wk =   0.0017778
        k(  175) = (   0.1333333   0.2000000   0.2000000), wk =   0.0017778
        k(  176) = (   0.1333333   0.2000000   0.2666667), wk =   0.0035556
        k(  177) = (   0.1333333   0.2000000   0.3333333), wk =   0.0035556
        k(  178) = (   0.1333333   0.2000000   0.4000000), wk =   0.0035556
        k(  179) = (   0.1333333   0.2000000   0.4666667), wk =   0.0035556
        k(  180) = (   0.1333333   0.2000000  -0.4666667), wk =   0.0035556
        k(  181) = (   0.1333333   0.2000000  -0.4000000), wk =   0.0035556
        k(  182) = (   0.1333333   0.2000000  -0.3333333), wk =   0.0035556
        k(  183) = (   0.1333333   0.2000000  -0.2666667), wk =   0.0035556
        k(  184) = (   0.1333333   0.2000000  -0.2000000), wk =   0.0035556
        k(  185) = (   0.1333333   0.2000000  -0.1333333), wk =   0.0035556
        k(  186) = (   0.1333333   0.2666667   0.2666667), wk =   0.0017778
        k(  187) = (   0.1333333   0.2666667   0.3333333), wk =   0.0035556
        k(  188) = (   0.1333333   0.2666667   0.4000000), wk =   0.0035556
        k(  189) = (   0.1333333   0.2666667   0.4666667), wk =   0.0035556
        k(  190) = (   0.1333333   0.2666667  -0.4666667), wk =   0.0035556
        k(  191) = (   0.1333333   0.2666667  -0.4000000), wk =   0.0035556
        k(  192) = (   0.1333333   0.2666667  -0.3333333), wk =   0.0035556
        k(  193) = (   0.1333333   0.2666667  -0.2666667), wk =   0.0035556
        k(  194) = (   0.1333333   0.2666667  -0.2000000), wk =   0.0035556
        k(  195) = (   0.1333333   0.2666667  -0.1333333), wk =   0.0035556
        k(  196) = (   0.1333333   0.3333333   0.3333333), wk =   0.0017778
        k(  197) = (   0.1333333   0.3333333   0.4000000), wk =   0.0035556
        k(  198) = (   0.1333333   0.3333333   0.4666667), wk =   0.0035556
        k(  199) = (   0.1333333   0.3333333  -0.4666667), wk =   0.0035556
        k(  200) = (   0.1333333   0.3333333  -0.4000000), wk =   0.0035556
        k(  201) = (   0.1333333   0.3333333  -0.3333333), wk =   0.0035556
        k(  202) = (   0.1333333   0.3333333  -0.2666667), wk =   0.0035556
        k(  203) = (   0.1333333   0.3333333  -0.2000000), wk =   0.0035556
        k(  204) = (   0.1333333   0.3333333  -0.1333333), wk =   0.0035556
        k(  205) = (   0.1333333   0.4000000   0.4000000), wk =   0.0017778
        k(  206) = (   0.1333333   0.4000000   0.4666667), wk =   0.0035556
        k(  207) = (   0.1333333   0.4000000  -0.4666667), wk =   0.0035556
        k(  208) = (   0.1333333   0.4000000  -0.4000000), wk =   0.0035556
        k(  209) = (   0.1333333   0.4000000  -0.3333333), wk =   0.0035556
        k(  210) = (   0.1333333   0.4000000  -0.2666667), wk =   0.0035556
        k(  211) = (   0.1333333   0.4000000  -0.2000000), wk =   0.0035556
        k(  212) = (   0.1333333   0.4000000  -0.1333333), wk =   0.0035556
        k(  213) = (   0.1333333   0.4666667   0.4666667), wk =   0.0017778
        k(  214) = (   0.1333333   0.4666667  -0.4666667), wk =   0.0035556
        k(  215) = (   0.1333333   0.4666667  -0.4000000), wk =   0.0035556
        k(  216) = (   0.1333333   0.4666667  -0.3333333), wk =   0.0035556
        k(  217) = (   0.1333333   0.4666667  -0.2666667), wk =   0.0035556
        k(  218) = (   0.1333333   0.4666667  -0.2000000), wk =   0.0035556
        k(  219) = (   0.1333333   0.4666667  -0.1333333), wk =   0.0035556
        k(  220) = (   0.1333333  -0.4666667  -0.4666667), wk =   0.0017778
        k(  221) = (   0.1333333  -0.4666667  -0.4000000), wk =   0.0035556
        k(  222) = (   0.1333333  -0.4666667  -0.3333333), wk =   0.0035556
        k(  223) = (   0.1333333  -0.4666667  -0.2666667), wk =   0.0035556
        k(  224) = (   0.1333333  -0.4666667  -0.2000000), wk =   0.0035556
        k(  225) = (   0.1333333  -0.4000000  -0.4000000), wk =   0.0017778
        k(  226) = (   0.1333333  -0.4000000  -0.3333333), wk =   0.0035556
        k(  227) = (   0.1333333  -0.4000000  -0.2666667), wk =   0.0035556
        k(  228) = (   0.1333333  -0.4000000  -0.2000000), wk =   0.0035556
        k(  229) = (   0.1333333  -0.3333333  -0.3333333), wk =   0.0017778
        k(  230) = (   0.1333333  -0.3333333  -0.2666667), wk =   0.0035556
        k(  231) = (   0.1333333  -0.3333333  -0.2000000), wk =   0.0035556
        k(  232) = (   0.1333333  -0.2666667  -0.2666667), wk =   0.0017778
        k(  233) = (   0.1333333  -0.2666667  -0.2000000), wk =   0.0035556
        k(  234) = (   0.1333333  -0.2000000  -0.2000000), wk =   0.0017778
        k(  235) = (   0.2000000   0.2000000   0.2000000), wk =   0.0005926
        k(  236) = (   0.2000000   0.2000000   0.2666667), wk =   0.0017778
        k(  237) = (   0.2000000   0.2000000   0.3333333), wk =   0.0017778
        k(  238) = (   0.2000000   0.2000000   0.4000000), wk =   0.0017778
        k(  239) = (   0.2000000   0.2000000   0.4666667), wk =   0.0017778
        k(  240) = (   0.2000000   0.2000000  -0.4666667), wk =   0.0017778
        k(  241) = (   0.2000000   0.2000000  -0.4000000), wk =   0.0017778
        k(  242) = (   0.2000000   0.2000000  -0.3333333), wk =   0.0017778
        k(  243) = (   0.2000000   0.2000000  -0.2666667), wk =   0.0017778
        k(  244) = (   0.2000000   0.2000000  -0.2000000), wk =   0.0017778
        k(  245) = (   0.2000000   0.2666667   0.2666667), wk =   0.0017778
        k(  246) = (   0.2000000   0.2666667   0.3333333), wk =   0.0035556
        k(  247) = (   0.2000000   0.2666667   0.4000000), wk =   0.0035556
        k(  248) = (   0.2000000   0.2666667   0.4666667), wk =   0.0035556
        k(  249) = (   0.2000000   0.2666667  -0.4666667), wk =   0.0035556
        k(  250) = (   0.2000000   0.2666667  -0.4000000), wk =   0.0035556
        k(  251) = (   0.2000000   0.2666667  -0.3333333), wk =   0.0035556
        k(  252) = (   0.2000000   0.2666667  -0.2666667), wk =   0.0035556
        k(  253) = (   0.2000000   0.2666667  -0.2000000), wk =   0.0035556
        k(  254) = (   0.2000000   0.3333333   0.3333333), wk =   0.0017778
        k(  255) = (   0.2000000   0.3333333   0.4000000), wk =   0.0035556
        k(  256) = (   0.2000000   0.3333333   0.4666667), wk =   0.0035556
        k(  257) = (   0.2000000   0.3333333  -0.4666667), wk =   0.0035556
        k(  258) = (   0.2000000   0.3333333  -0.4000000), wk =   0.0035556
        k(  259) = (   0.2000000   0.3333333  -0.3333333), wk =   0.0035556
        k(  260) = (   0.2000000   0.3333333  -0.2666667), wk =   0.0035556
        k(  261) = (   0.2000000   0.3333333  -0.2000000), wk =   0.0035556
        k(  262) = (   0.2000000   0.4000000   0.4000000), wk =   0.0017778
        k(  263) = (   0.2000000   0.4000000   0.4666667), wk =   0.0035556
        k(  264) = (   0.2000000   0.4000000  -0.4666667), wk =   0.0035556
        k(  265) = (   0.2000000   0.4000000  -0.4000000), wk =   0.0035556
        k(  266) = (   0.2000000   0.4000000  -0.3333333), wk =   0.0035556
        k(  267) = (   0.2000000   0.4000000  -0.2666667), wk =   0.0035556
        k(  268) = (   0.2000000   0.4000000  -0.2000000), wk =   0.0035556
        k(  269) = (   0.2000000   0.4666667   0.4666667), wk =   0.0017778
        k(  270) = (   0.2000000   0.4666667  -0.4666667), wk =   0.0035556
        k(  271) = (   0.2000000   0.4666667  -0.4000000), wk =   0.0035556
        k(  272) = (   0.2000000   0.4666667  -0.3333333), wk =   0.0035556
        k(  273) = (   0.2000000   0.4666667  -0.2666667), wk =   0.0035556
        k(  274) = (   0.2000000   0.4666667  -0.2000000), wk =   0.0035556
        k(  275) = (   0.2000000  -0.4666667  -0.4666667), wk =   0.0017778
        k(  276) = (   0.2000000  -0.4666667  -0.4000000), wk =   0.0035556
        k(  277) = (   0.2000000  -0.4666667  -0.3333333), wk =   0.0035556
        k(  278) = (   0.2000000  -0.4666667  -0.2666667), wk =   0.0035556
        k(  279) = (   0.2000000  -0.4000000  -0.4000000), wk =   0.0017778
        k(  280) = (   0.2000000  -0.4000000  -0.3333333), wk =   0.0035556
        k(  281) = (   0.2000000  -0.4000000  -0.2666667), wk =   0.0035556
        k(  282) = (   0.2000000  -0.3333333  -0.3333333), wk =   0.0017778
        k(  283) = (   0.2000000  -0.3333333  -0.2666667), wk =   0.0035556
        k(  284) = (   0.2000000  -0.2666667  -0.2666667), wk =   0.0017778
        k(  285) = (   0.2666667   0.2666667   0.2666667), wk =   0.0005926
        k(  286) = (   0.2666667   0.2666667   0.3333333), wk =   0.0017778
        k(  287) = (   0.2666667   0.2666667   0.4000000), wk =   0.0017778
        k(  288) = (   0.2666667   0.2666667   0.4666667), wk =   0.0017778
        k(  289) = (   0.2666667   0.2666667  -0.4666667), wk =   0.0017778
        k(  290) = (   0.2666667   0.2666667  -0.4000000), wk =   0.0017778
        k(  291) = (   0.2666667   0.2666667  -0.3333333), wk =   0.0017778
        k(  292) = (   0.2666667   0.2666667  -0.2666667), wk =   0.0017778
        k(  293) = (   0.2666667   0.3333333   0.3333333), wk =   0.0017778
        k(  294) = (   0.2666667   0.3333333   0.4000000), wk =   0.0035556
        k(  295) = (   0.2666667   0.3333333   0.4666667), wk =   0.0035556
        k(  296) = (   0.2666667   0.3333333  -0.4666667), wk =   0.0035556
        k(  297) = (   0.2666667   0.3333333  -0.4000000), wk =   0.0035556
        k(  298) = (   0.2666667   0.3333333  -0.3333333), wk =   0.0035556
        k(  299) = (   0.2666667   0.3333333  -0.2666667), wk =   0.0035556
        k(  300) = (   0.2666667   0.4000000   0.4000000), wk =   0.0017778
        k(  301) = (   0.2666667   0.4000000   0.4666667), wk =   0.0035556
        k(  302) = (   0.2666667   0.4000000  -0.4666667), wk =   0.0035556
        k(  303) = (   0.2666667   0.4000000  -0.4000000), wk =   0.0035556
        k(  304) = (   0.2666667   0.4000000  -0.3333333), wk =   0.0035556
        k(  305) = (   0.2666667   0.4000000  -0.2666667), wk =   0.0035556
        k(  306) = (   0.2666667   0.4666667   0.4666667), wk =   0.0017778
        k(  307) = (   0.2666667   0.4666667  -0.4666667), wk =   0.0035556
        k(  308) = (   0.2666667   0.4666667  -0.4000000), wk =   0.0035556
        k(  309) = (   0.2666667   0.4666667  -0.3333333), wk =   0.0035556
        k(  310) = (   0.2666667   0.4666667  -0.2666667), wk =   0.0035556
        k(  311) = (   0.2666667  -0.4666667  -0.4666667), wk =   0.0017778
        k(  312) = (   0.2666667  -0.4666667  -0.4000000), wk =   0.0035556
        k(  313) = (   0.2666667  -0.4666667  -0.3333333), wk =   0.0035556
        k(  314) = (   0.2666667  -0.4000000  -0.4000000), wk =   0.0017778
        k(  315) = (   0.2666667  -0.4000000  -0.3333333), wk =   0.0035556
        k(  316) = (   0.2666667  -0.3333333  -0.3333333), wk =   0.0017778
        k(  317) = (   0.3333333   0.3333333   0.3333333), wk =   0.0005926
        k(  318) = (   0.3333333   0.3333333   0.4000000), wk =   0.0017778
        k(  319) = (   0.3333333   0.3333333   0.4666667), wk =   0.0017778
        k(  320) = (   0.3333333   0.3333333  -0.4666667), wk =   0.0017778
        k(  321) = (   0.3333333   0.3333333  -0.4000000), wk =   0.0017778
        k(  322) = (   0.3333333   0.3333333  -0.3333333), wk =   0.0017778
        k(  323) = (   0.3333333   0.4000000   0.4000000), wk =   0.0017778
        k(  324) = (   0.3333333   0.4000000   0.4666667), wk =   0.0035556
        k(  325) = (   0.3333333   0.4000000  -0.4666667), wk =   0.0035556
        k(  326) = (   0.3333333   0.4000000  -0.4000000), wk =   0.0035556
        k(  327) = (   0.3333333   0.4000000  -0.3333333), wk =   0.0035556
        k(  328) = (   0.3333333   0.4666667   0.4666667), wk =   0.0017778
        k(  329) = (   0.3333333   0.4666667  -0.4666667), wk =   0.0035556
        k(  330) = (   0.3333333   0.4666667  -0.4000000), wk =   0.0035556
        k(  331) = (   0.3333333   0.4666667  -0.3333333), wk =   0.0035556
        k(  332) = (   0.3333333  -0.4666667  -0.4666667), wk =   0.0017778
        k(  333) = (   0.3333333  -0.4666667  -0.4000000), wk =   0.0035556
        k(  334) = (   0.3333333  -0.4000000  -0.4000000), wk =   0.0017778
        k(  335) = (   0.4000000   0.4000000   0.4000000), wk =   0.0005926
        k(  336) = (   0.4000000   0.4000000   0.4666667), wk =   0.0017778
        k(  337) = (   0.4000000   0.4000000  -0.4666667), wk =   0.0017778
        k(  338) = (   0.4000000   0.4000000  -0.4000000), wk =   0.0017778
        k(  339) = (   0.4000000   0.4666667   0.4666667), wk =   0.0017778
        k(  340) = (   0.4000000   0.4666667  -0.4666667), wk =   0.0035556
        k(  341) = (   0.4000000   0.4666667  -0.4000000), wk =   0.0035556
        k(  342) = (   0.4000000  -0.4666667  -0.4666667), wk =   0.0017778
        k(  343) = (   0.4666667   0.4666667   0.4666667), wk =   0.0005926
        k(  344) = (   0.4666667   0.4666667  -0.4666667), wk =   0.0017778

     Dense  grid:    40057 G-vectors     FFT dimensions: (  72,  72,  72)

     Dynamical RAM for                 wfc:       0.24 MB

     Dynamical RAM for     wfc (w. buffer):      10.49 MB

     Dynamical RAM for             V proj.:       0.15 MB

     Dynamical RAM for  V proj. (w. buff.):       6.71 MB

     Dynamical RAM for           str. fact:       0.23 MB

     Dynamical RAM for           local pot:       0.00 MB

     Dynamical RAM for          nlocal pot:       0.59 MB

     Dynamical RAM for                qrad:       4.82 MB

     Dynamical RAM for          rho,v,vnew:       2.59 MB

     Dynamical RAM for               rhoin:       0.86 MB

     Dynamical RAM for            rho*nmix:       2.44 MB

     Dynamical RAM for           G-vectors:       0.32 MB

     Dynamical RAM for          h,s,v(r/c):       0.11 MB

     Dynamical RAM for          <psi|beta>:       0.02 MB

     Dynamical RAM for                 psi:       0.48 MB

     Dynamical RAM for                hpsi:       0.48 MB

     Dynamical RAM for      wfcinit/wfcrot:       0.49 MB

     Estimated static dynamical RAM per process >      29.07 MB

     Estimated max dynamical RAM per process >      32.60 MB

     Estimated total dynamical RAM >       3.79 GB
     Generating pointlists ...
     new r_m :   0.1684 (alat units)  1.7328 (a.u.) for type    1
     new r_m :   0.1684 (alat units)  1.7328 (a.u.) for type    2
     new r_m :   0.1684 (alat units)  1.7328 (a.u.) for type    3

     Initial potential from superposition of free atoms

     starting charge      41.9990, renormalised to      42.0000
 
     =========================
     E(+U+V) =  0.000000000 Ry
     =========================

     Atomic wfcs used for DFT+U+V projectors are orthogonalized

     Starting wfcs are random

     total cpu time spent up to now is        5.2 secs

     Self-consistent Calculation

     iteration #  1     ecut=   100.00 Ry     beta= 0.70
     Davidson diagonalization with overlap

---- Real-time Memory Report at c_bands before calling an iterative solver
           827 MiB given to the printing process from OS
             0 MiB allocation reported by mallinfo(arena+hblkhd)
        439309 MiB available memory on the node where the printing process lives
------------------
     ethr =  1.00E-02,  avg # of iterations = 13.0
                                        
     -----------------------------------
     V[atom i, atom j, #orb(i), #orb(j)]
     -----------------------------------
     [  1,  1,  5,  5  ]
     [  0     0     0  ]
       9.8726   9.8726   9.8726   9.8726   9.8726
       9.8726   9.8726   9.8726   9.8726   9.8726
       9.8726   9.8726   9.8726   9.8726   9.8726
       9.8726   9.8726   9.8726   9.8726   9.8726
       9.8726   9.8726   9.8726   9.8726   9.8726
 
     [  2,  2,  5,  5  ]
     [  0     0     0  ]
       9.8741   9.8741   9.8741   9.8741   9.8741
       9.8741   9.8741   9.8741   9.8741   9.8741
       9.8741   9.8741   9.8741   9.8741   9.8741
       9.8741   9.8741   9.8741   9.8741   9.8741
       9.8741   9.8741   9.8741   9.8741   9.8741
 
     [  3,  3,  3,  3  ]
     [  0     0     0  ]
       6.5256   6.5256   6.5256
       6.5256   6.5256   6.5256
       6.5256   6.5256   6.5256
 
     [  4,  4,  3,  3  ]
     [  0     0     0  ]
       6.5256   6.5256   6.5256
       6.5256   6.5256   6.5256
       6.5256   6.5256   6.5256
 
     [  1,  4,  5,  3  ]
     [ -1    -1     0  ]
       2.5381   2.5381   2.5381
       2.5381   2.5381   2.5381
       2.5381   2.5381   2.5381
       2.5381   2.5381   2.5381
       2.5381   2.5381   2.5381
 
     [  1,  4,  5,  3  ]
     [ -1     0    -1  ]
       2.5383   2.5383   2.5383
       2.5383   2.5383   2.5383
       2.5383   2.5383   2.5383
       2.5383   2.5383   2.5383
       2.5383   2.5383   2.5383
 
     [  1,  3,  5,  3  ]
     [ -1     0     0  ]
       2.5383   2.5383   2.5383
       2.5383   2.5383   2.5383
       2.5383   2.5383   2.5383
       2.5383   2.5383   2.5383
       2.5383   2.5383   2.5383
 
     [  2,  4,  5,  3  ]
     [ -1     0     0  ]
       2.5381   2.5381   2.5381
       2.5381   2.5381   2.5381
       2.5381   2.5381   2.5381
       2.5381   2.5381   2.5381
       2.5381   2.5381   2.5381
 
     [  3,  2,  3,  5  ]
     [ -1     0     0  ]
       2.5381   2.5381   2.5381   2.5381   2.5381
       2.5381   2.5381   2.5381   2.5381   2.5381
       2.5381   2.5381   2.5381   2.5381   2.5381
 
     [  1,  4,  5,  3  ]
     [  0    -1    -1  ]
       2.5383   2.5383   2.5383
       2.5383   2.5383   2.5383
       2.5383   2.5383   2.5383
       2.5383   2.5383   2.5383
       2.5383   2.5383   2.5383
 
     [  1,  3,  5,  3  ]
     [  0    -1     0  ]
       2.5383   2.5383   2.5383
       2.5383   2.5383   2.5383
       2.5383   2.5383   2.5383
       2.5383   2.5383   2.5383
       2.5383   2.5383   2.5383
 
     [  2,  4,  5,  3  ]
     [  0    -1     0  ]
       2.5381   2.5381   2.5381
       2.5381   2.5381   2.5381
       2.5381   2.5381   2.5381
       2.5381   2.5381   2.5381
       2.5381   2.5381   2.5381
 
     [  3,  2,  3,  5  ]
     [  0    -1     0  ]
       2.5381   2.5381   2.5381   2.5381   2.5381
       2.5381   2.5381   2.5381   2.5381   2.5381
       2.5381   2.5381   2.5381   2.5381   2.5381
 
     [  1,  3,  5,  3  ]
     [  0     0    -1  ]
       2.5381   2.5381   2.5381
       2.5381   2.5381   2.5381
       2.5381   2.5381   2.5381
       2.5381   2.5381   2.5381
       2.5381   2.5381   2.5381
 
     [  2,  4,  5,  3  ]
     [  0     0    -1  ]
       2.5378   2.5378   2.5378
       2.5378   2.5378   2.5378
       2.5378   2.5378   2.5378
       2.5378   2.5378   2.5378
       2.5378   2.5378   2.5378
 
     [  3,  2,  3,  5  ]
     [  0     0    -1  ]
       2.5378   2.5378   2.5378   2.5378   2.5378
       2.5378   2.5378   2.5378   2.5378   2.5378
       2.5378   2.5378   2.5378   2.5378   2.5378
 
     [  2,  3,  5,  3  ]
     [  0     0     1  ]
       2.5378   2.5378   2.5378
       2.5378   2.5378   2.5378
       2.5378   2.5378   2.5378
       2.5378   2.5378   2.5378
       2.5378   2.5378   2.5378
 
     [  3,  1,  3,  5  ]
     [  0     0     1  ]
       2.5381   2.5381   2.5381   2.5381   2.5381
       2.5381   2.5381   2.5381   2.5381   2.5381
       2.5381   2.5381   2.5381   2.5381   2.5381
 
     [  4,  2,  3,  5  ]
     [  0     0     1  ]
       2.5378   2.5378   2.5378   2.5378   2.5378
       2.5378   2.5378   2.5378   2.5378   2.5378
       2.5378   2.5378   2.5378   2.5378   2.5378
 
     [  2,  3,  5,  3  ]
     [  0     1     0  ]
       2.5381   2.5381   2.5381
       2.5381   2.5381   2.5381
       2.5381   2.5381   2.5381
       2.5381   2.5381   2.5381
       2.5381   2.5381   2.5381
 
     [  3,  1,  3,  5  ]
     [  0     1     0  ]
       2.5383   2.5383   2.5383   2.5383   2.5383
       2.5383   2.5383   2.5383   2.5383   2.5383
       2.5383   2.5383   2.5383   2.5383   2.5383
 
     [  4,  2,  3,  5  ]
     [  0     1     0  ]
       2.5381   2.5381   2.5381   2.5381   2.5381
       2.5381   2.5381   2.5381   2.5381   2.5381
       2.5381   2.5381   2.5381   2.5381   2.5381
 
     [  4,  1,  3,  5  ]
     [  0     1     1  ]
       2.5383   2.5383   2.5383   2.5383   2.5383
       2.5383   2.5383   2.5383   2.5383   2.5383
       2.5383   2.5383   2.5383   2.5383   2.5383
 
     [  2,  3,  5,  3  ]
     [  1     0     0  ]
       2.5381   2.5381   2.5381
       2.5381   2.5381   2.5381
       2.5381   2.5381   2.5381
       2.5381   2.5381   2.5381
       2.5381   2.5381   2.5381
 
     [  3,  1,  3,  5  ]
     [  1     0     0  ]
       2.5383   2.5383   2.5383   2.5383   2.5383
       2.5383   2.5383   2.5383   2.5383   2.5383
       2.5383   2.5383   2.5383   2.5383   2.5383
 
     [  4,  2,  3,  5  ]
     [  1     0     0  ]
       2.5381   2.5381   2.5381   2.5381   2.5381
       2.5381   2.5381   2.5381   2.5381   2.5381
       2.5381   2.5381   2.5381   2.5381   2.5381
 
     [  4,  1,  3,  5  ]
     [  1     0     1  ]
       2.5383   2.5383   2.5383   2.5383   2.5383
       2.5383   2.5383   2.5383   2.5383   2.5383
       2.5383   2.5383   2.5383   2.5383   2.5383
 
     [  4,  1,  3,  5  ]
     [  1     1     0  ]
       2.5381   2.5381   2.5381   2.5381   2.5381
       2.5381   2.5381   2.5381   2.5381   2.5381
       2.5381   2.5381   2.5381   2.5381   2.5381
 
 
     =========================
     E(+U+V) =  0.546381807 Ry
     =========================

     total cpu time spent up to now is       27.2 secs

     total energy              =    -501.03232908 Ry
     estimated scf accuracy    <       0.57285061 Ry
     Hubbard accuracy          <       0.54638181 Ry

     total magnetization       =     0.01 Bohr mag/cell
     absolute magnetization    =     8.32 Bohr mag/cell

     iteration #  2     ecut=   100.00 Ry     beta= 0.70
     Davidson diagonalization with overlap

---- Real-time Memory Report at c_bands before calling an iterative solver
           855 MiB given to the printing process from OS
             0 MiB allocation reported by mallinfo(arena+hblkhd)
        439029 MiB available memory on the node where the printing process lives
------------------
     ethr =  1.36E-03,  avg # of iterations =  6.2
                                        
     -----------------------------------
     V[atom i, atom j, #orb(i), #orb(j)]
     -----------------------------------
     [  1,  1,  5,  5  ]
     [  0     0     0  ]
       8.5173   8.5173   8.5173   8.5173   8.5173
       8.5173   8.5173   8.5173   8.5173   8.5173
       8.5173   8.5173   8.5173   8.5173   8.5173
       8.5173   8.5173   8.5173   8.5173   8.5173
       8.5173   8.5173   8.5173   8.5173   8.5173
 
     [  2,  2,  5,  5  ]
     [  0     0     0  ]
       8.6012   8.6012   8.6012   8.6012   8.6012
       8.6012   8.6012   8.6012   8.6012   8.6012
       8.6012   8.6012   8.6012   8.6012   8.6012
       8.6012   8.6012   8.6012   8.6012   8.6012
       8.6012   8.6012   8.6012   8.6012   8.6012
 
     [  3,  3,  3,  3  ]
     [  0     0     0  ]
       5.5084   5.5084   5.5084
       5.5084   5.5084   5.5084
       5.5084   5.5084   5.5084
 
     [  4,  4,  3,  3  ]
     [  0     0     0  ]
       5.5084   5.5084   5.5084
       5.5084   5.5084   5.5084
       5.5084   5.5084   5.5084
 
     [  1,  4,  5,  3  ]
     [ -1    -1     0  ]
       2.7646   2.7646   2.7646
       2.7646   2.7646   2.7646
       2.7646   2.7646   2.7646
       2.7646   2.7646   2.7646
       2.7646   2.7646   2.7646
 
     [  1,  4,  5,  3  ]
     [ -1     0    -1  ]
       2.7658   2.7658   2.7658
       2.7658   2.7658   2.7658
       2.7658   2.7658   2.7658
       2.7658   2.7658   2.7658
       2.7658   2.7658   2.7658
 
     [  1,  3,  5,  3  ]
     [ -1     0     0  ]
       2.7658   2.7658   2.7658
       2.7658   2.7658   2.7658
       2.7658   2.7658   2.7658
       2.7658   2.7658   2.7658
       2.7658   2.7658   2.7658
 
     [  2,  4,  5,  3  ]
     [ -1     0     0  ]
       2.7662   2.7662   2.7662
       2.7662   2.7662   2.7662
       2.7662   2.7662   2.7662
       2.7662   2.7662   2.7662
       2.7662   2.7662   2.7662
 
     [  3,  2,  3,  5  ]
     [ -1     0     0  ]
       2.7662   2.7662   2.7662   2.7662   2.7662
       2.7662   2.7662   2.7662   2.7662   2.7662
       2.7662   2.7662   2.7662   2.7662   2.7662
 
     [  1,  4,  5,  3  ]
     [  0    -1    -1  ]
       2.7658   2.7658   2.7658
       2.7658   2.7658   2.7658
       2.7658   2.7658   2.7658
       2.7658   2.7658   2.7658
       2.7658   2.7658   2.7658
 
     [  1,  3,  5,  3  ]
     [  0    -1     0  ]
       2.7658   2.7658   2.7658
       2.7658   2.7658   2.7658
       2.7658   2.7658   2.7658
       2.7658   2.7658   2.7658
       2.7658   2.7658   2.7658
 
     [  2,  4,  5,  3  ]
     [  0    -1     0  ]
       2.7662   2.7662   2.7662
       2.7662   2.7662   2.7662
       2.7662   2.7662   2.7662
       2.7662   2.7662   2.7662
       2.7662   2.7662   2.7662
 
     [  3,  2,  3,  5  ]
     [  0    -1     0  ]
       2.7662   2.7662   2.7662   2.7662   2.7662
       2.7662   2.7662   2.7662   2.7662   2.7662
       2.7662   2.7662   2.7662   2.7662   2.7662
 
     [  1,  3,  5,  3  ]
     [  0     0    -1  ]
       2.7646   2.7646   2.7646
       2.7646   2.7646   2.7646
       2.7646   2.7646   2.7646
       2.7646   2.7646   2.7646
       2.7646   2.7646   2.7646
 
     [  2,  4,  5,  3  ]
     [  0     0    -1  ]
       2.7649   2.7649   2.7649
       2.7649   2.7649   2.7649
       2.7649   2.7649   2.7649
       2.7649   2.7649   2.7649
       2.7649   2.7649   2.7649
 
     [  3,  2,  3,  5  ]
     [  0     0    -1  ]
       2.7649   2.7649   2.7649   2.7649   2.7649
       2.7649   2.7649   2.7649   2.7649   2.7649
       2.7649   2.7649   2.7649   2.7649   2.7649
 
     [  2,  3,  5,  3  ]
     [  0     0     1  ]
       2.7649   2.7649   2.7649
       2.7649   2.7649   2.7649
       2.7649   2.7649   2.7649
       2.7649   2.7649   2.7649
       2.7649   2.7649   2.7649
 
     [  3,  1,  3,  5  ]
     [  0     0     1  ]
       2.7646   2.7646   2.7646   2.7646   2.7646
       2.7646   2.7646   2.7646   2.7646   2.7646
       2.7646   2.7646   2.7646   2.7646   2.7646
 
     [  4,  2,  3,  5  ]
     [  0     0     1  ]
       2.7649   2.7649   2.7649   2.7649   2.7649
       2.7649   2.7649   2.7649   2.7649   2.7649
       2.7649   2.7649   2.7649   2.7649   2.7649
 
     [  2,  3,  5,  3  ]
     [  0     1     0  ]
       2.7662   2.7662   2.7662
       2.7662   2.7662   2.7662
       2.7662   2.7662   2.7662
       2.7662   2.7662   2.7662
       2.7662   2.7662   2.7662
 
     [  3,  1,  3,  5  ]
     [  0     1     0  ]
       2.7658   2.7658   2.7658   2.7658   2.7658
       2.7658   2.7658   2.7658   2.7658   2.7658
       2.7658   2.7658   2.7658   2.7658   2.7658
 
     [  4,  2,  3,  5  ]
     [  0     1     0  ]
       2.7662   2.7662   2.7662   2.7662   2.7662
       2.7662   2.7662   2.7662   2.7662   2.7662
       2.7662   2.7662   2.7662   2.7662   2.7662
 
     [  4,  1,  3,  5  ]
     [  0     1     1  ]
       2.7658   2.7658   2.7658   2.7658   2.7658
       2.7658   2.7658   2.7658   2.7658   2.7658
       2.7658   2.7658   2.7658   2.7658   2.7658
 
     [  2,  3,  5,  3  ]
     [  1     0     0  ]
       2.7662   2.7662   2.7662
       2.7662   2.7662   2.7662
       2.7662   2.7662   2.7662
       2.7662   2.7662   2.7662
       2.7662   2.7662   2.7662
 
     [  3,  1,  3,  5  ]
     [  1     0     0  ]
       2.7658   2.7658   2.7658   2.7658   2.7658
       2.7658   2.7658   2.7658   2.7658   2.7658
       2.7658   2.7658   2.7658   2.7658   2.7658
 
     [  4,  2,  3,  5  ]
     [  1     0     0  ]
       2.7662   2.7662   2.7662   2.7662   2.7662
       2.7662   2.7662   2.7662   2.7662   2.7662
       2.7662   2.7662   2.7662   2.7662   2.7662
 
     [  4,  1,  3,  5  ]
     [  1     0     1  ]
       2.7658   2.7658   2.7658   2.7658   2.7658
       2.7658   2.7658   2.7658   2.7658   2.7658
       2.7658   2.7658   2.7658   2.7658   2.7658
 
     [  4,  1,  3,  5  ]
     [  1     1     0  ]
       2.7646   2.7646   2.7646   2.7646   2.7646
       2.7646   2.7646   2.7646   2.7646   2.7646
       2.7646   2.7646   2.7646   2.7646   2.7646
 
 
     =========================
     E(+U+V) =  0.442184426 Ry
     =========================

     total cpu time spent up to now is       41.8 secs

     total energy              =    -506.78035193 Ry
     estimated scf accuracy    <       0.26941248 Ry
     Hubbard accuracy          <       0.10419738 Ry

     total magnetization       =     0.00 Bohr mag/cell
[...]

   -68.1397 -63.5505 -37.0928 -37.0789 -37.0596 -32.2375 -32.2031 -32.1942
    -5.3331  -5.1157   4.7577   5.5457   6.0596   6.3129   7.6089   7.7898
     7.8483   8.6623   9.0766  10.4145  10.4418  16.5907  17.2708  18.0495
    18.1084

     occupation numbers 
     1.0000   1.0000   1.0000   1.0000   1.0000   1.0000   1.0000   1.0000
     1.0000   1.0000   1.0000   1.0000   1.0000   1.0000   1.0000   1.0000
     1.0000   1.0000   1.0000   1.0000   1.0000   0.0000   0.0000   0.0000
     0.0000

          k = 0.2041 0.2041 0.2041 (  5032 PWs)   bands (ev):

   -68.1426 -63.5535 -37.0838 -37.0480 -37.0480 -32.2108 -32.1799 -32.1799
    -5.9150  -5.4043   5.1699   6.1570   6.1571   7.3479   7.8722   7.8722
     8.2384   8.2385   8.8786  10.8967  10.8967  14.9803  16.5153  17.2680
    17.2680

     occupation numbers 
     1.0000   1.0000   1.0000   1.0000   1.0000   1.0000   1.0000   1.0000
     1.0000   1.0000   1.0000   1.0000   1.0000   1.0000   1.0000   1.0000
     1.0000   1.0000   1.0000   1.0000   1.0000   0.0000   0.0000   0.0000
     0.0000

          k = 0.2722 0.2722 0.1089 (  5038 PWs)   bands (ev):

   -68.1421 -63.5532 -37.0835 -37.0502 -37.0485 -32.2104 -32.1826 -32.1806
    -5.8584  -5.4247   5.2702   6.1392   6.1582   7.3004   7.6841   7.7158
     8.0516   8.4660   9.0616  10.7873  10.8362  15.2214  16.5613  17.2584
    17.3077

     occupation numbers 
     1.0000   1.0000   1.0000   1.0000   1.0000   1.0000   1.0000   1.0000
     1.0000   1.0000   1.0000   1.0000   1.0000   1.0000   1.0000   1.0000
     1.0000   1.0000   1.0000   1.0000   1.0000   0.0000   0.0000   0.0000
     0.0000

          k = 0.3402 0.3402 0.0136 (  5027 PWs)   bands (ev):

   -68.1412 -63.5526 -37.0829 -37.0564 -37.0501 -32.2093 -32.1905 -32.1826
    -5.7564  -5.4144   5.3453   5.9902   6.1798   7.0130   7.5504   7.6522
     8.0375   8.7135   9.3202  10.4448  10.6216  15.5065  16.9279  17.2067
    17.4347

     occupation numbers 
     1.0000   1.0000   1.0000   1.0000   1.0000   1.0000   1.0000   1.0000
     1.0000   1.0000   1.0000   1.0000   1.0000   1.0000   1.0000   1.0000
     1.0000   1.0000   1.0000   1.0000   1.0000   0.0000   0.0000   0.0000
     0.0000

          k =-0.6124-0.6124 1.3472 (  5017 PWs)   bands (ev):

   -68.1402 -63.5519 -37.0819 -37.0654 -37.0525 -32.2077 -32.2020 -32.1854
    -5.6311  -5.3683   5.3012   5.8638   6.1905   6.6137   7.4632   7.7965
     8.0643   8.8953   9.4667  10.0342  10.4513  15.7834  17.0377  17.4988
    17.6106

     occupation numbers 
     1.0000   1.0000   1.0000   1.0000   1.0000   1.0000   1.0000   1.0000
     1.0000   1.0000   1.0000   1.0000   1.0000   1.0000   1.0000   1.0000
     1.0000   1.0000   1.0000   1.0000   1.0000   0.0000   0.0000   0.0000
     0.0000

          k =-0.5443-0.5443 1.2520 (  5013 PWs)   bands (ev):

   -68.1396 -63.5513 -37.0808 -37.0756 -37.0552 -32.2152 -32.2060 -32.1887
    -5.5096  -5.2884   5.1659   5.6950   6.1649   6.4389   7.4878   7.7876
     8.0417   8.9514   9.3550  10.0145  10.3476  16.1728  16.8997  17.7213
    17.7908

     occupation numbers 
     1.0000   1.0000   1.0000   1.0000   1.0000   1.0000   1.0000   1.0000
     1.0000   1.0000   1.0000   1.0000   1.0000   1.0000   1.0000   1.0000
     1.0000   1.0000   1.0000   1.0000   1.0000   0.0000   0.0000   0.0000
     0.0000

          k =-0.4763-0.4763 1.1567 (  4991 PWs)   bands (ev):

   -68.1394 -63.5509 -37.0853 -37.0797 -37.0577 -32.2277 -32.2043 -32.1918
    -5.4095  -5.1927   4.9855   5.5290   6.1106   6.4028   7.6128   7.7188
     7.8987   8.8568   9.2029  10.2288  10.3476  16.6185  16.8271  17.8904
    17.9429

     occupation numbers 
     1.0000   1.0000   1.0000   1.0000   1.0000   1.0000   1.0000   1.0000
     1.0000   1.0000   1.0000   1.0000   1.0000   1.0000   1.0000   1.0000
     1.0000   1.0000   1.0000   1.0000   1.0000   0.0000   0.0000   0.0000
     0.0000

          k = 0.3402 0.1769 0.1769 (  5034 PWs)   bands (ev):

   -68.1420 -63.5530 -37.0835 -37.0502 -37.0485 -32.2105 -32.1827 -32.1806
    -5.8275  -5.4590   5.3575   6.0936   6.2495   7.2094   7.6216   7.7147
     8.1979   8.2119   9.0940  10.7136  11.0009  15.3578  16.4509  17.2673
    17.3153

     occupation numbers 
     1.0000   1.0000   1.0000   1.0000   1.0000   1.0000   1.0000   1.0000
     1.0000   1.0000   1.0000   1.0000   1.0000   1.0000   1.0000   1.0000
     1.0000   1.0000   1.0000   1.0000   1.0000   0.0000   0.0000   0.0000
     0.0000

          k = 0.4082 0.2449 0.0816 (  5029 PWs)   bands (ev):

   -68.1414 -63.5526 -37.0831 -37.0543 -37.0497 -32.2097 -32.1879 -32.1820
    -5.7475  -5.4635   5.4357   5.9835   6.2497   7.1824   7.4575   7.5044
     8.0986   8.5013   9.2814  10.4897  10.8699  15.5962  16.6403  17.2489
    17.4066

     occupation numbers 
     1.0000   1.0000   1.0000   1.0000   1.0000   1.0000   1.0000   1.0000
     1.0000   1.0000   1.0000   1.0000   1.0000   1.0000   1.0000   1.0000
     1.0000   1.0000   1.0000   1.0000   1.0000   0.0000   0.0000   0.0000
     0.0000

          k =-0.5443-0.7076 1.4153 (  5027 PWs)   bands (ev):

   -68.1405 -63.5520 -37.0822 -37.0617 -37.0519 -32.2083 -32.1973 -32.1847
    -5.6367  -5.4309   5.4137   5.8535   6.2385   6.8484   7.3026   7.6895
     8.0753   8.7577   9.4334  10.1321  10.6658  15.8036  17.0613  17.2147
    17.5812

     occupation numbers 
     1.0000   1.0000   1.0000   1.0000   1.0000   1.0000   1.0000   1.0000
     1.0000   1.0000   1.0000   1.0000   1.0000   1.0000   1.0000   1.0000
     1.0000   1.0000   1.0000   1.0000   1.0000   0.0000   0.0000   0.0000
     0.0000

          k =-0.4763-0.6396 1.3200 (  5013 PWs)   bands (ev):

   -68.1397 -63.5515 -37.0812 -37.0710 -37.0546 -32.2093 -32.2066 -32.1881
    -5.5217  -5.3582   5.2771   5.7399   6.2329   6.5599   7.2478   7.8246
     8.0745   8.8649   9.4004   9.9665  10.5336  16.1029  17.0051  17.4791
    17.8285

     occupation numbers 
     1.0000   1.0000   1.0000   1.0000   1.0000   1.0000   1.0000   1.0000
     1.0000   1.0000   1.0000   1.0000   1.0000   1.0000   1.0000   1.0000
     1.0000   1.0000   1.0000   1.0000   1.0000   0.0000   0.0000   0.0000
     0.0000

          k =-0.4083-0.5716 1.2248 (  4992 PWs)   bands (ev):

   -68.1394 -63.5510 -37.0808 -37.0801 -37.0575 -32.2218 -32.2049 -32.1916
    -5.4231  -5.2574   5.1193   5.5700   6.1753   6.4564   7.2774   7.8242
     8.0144   8.8569   9.1930  10.1465  10.4782  16.5429  16.8716  17.6511
    17.9906

     occupation numbers 
     1.0000   1.0000   1.0000   1.0000   1.0000   1.0000   1.0000   1.0000
     1.0000   1.0000   1.0000   1.0000   1.0000   1.0000   1.0000   1.0000
     1.0000   1.0000   1.0000   1.0000   1.0000   0.0000   0.0000   0.0000
     0.0000

          k = 0.4763 0.1497 0.1497 (  5034 PWs)   bands (ev):

   -68.1411 -63.5524 -37.0828 -37.0563 -37.0501 -32.2094 -32.1905 -32.1825
    -5.6898  -5.4858   5.5021   5.9081   6.3195   7.0694   7.4038   7.4499
     8.1419   8.4443   9.3453  10.3933  10.9141  15.7810  16.5988  17.3068
    17.4467

     occupation numbers 
     1.0000   1.0000   1.0000   1.0000   1.0000   1.0000   1.0000   1.0000
     1.0000   1.0000   1.0000   1.0000   1.0000   1.0000   1.0000   1.0000
     1.0000   1.0000   1.0000   1.0000   1.0000   0.0000   0.0000   0.0000
     0.0000

          k =-0.4763-0.8029 1.4833 (  5027 PWs)   bands (ev):

   -68.1405 -63.5520 -37.0822 -37.0617 -37.0519 -32.2083 -32.1973 -32.1847
    -5.5981  -5.4713   5.4807   5.8134   6.3004   6.9151   7.2096   7.5764
     8.1131   8.6618   9.3941  10.1900  10.7785  15.9304  16.8759  17.3008
    17.5286

     occupation numbers 
     1.0000   1.0000   1.0000   1.0000   1.0000   1.0000   1.0000   1.0000
     1.0000   1.0000   1.0000   1.0000   1.0000   1.0000   1.0000   1.0000
     1.0000   1.0000   1.0000   1.0000   1.0000   0.0000   0.0000   0.0000
     0.0000

          k =-0.4083-0.7349 1.3881 (  5011 PWs)   bands (ev):

   -68.1398 -63.5515 -37.0813 -37.0691 -37.0548 -32.2069 -32.2067 -32.1883
    -5.4990  -5.4107   5.3527   5.7331   6.2955   6.8179   6.9064   7.7657
     8.1041   8.8012   9.4032   9.9675  10.6866  16.1537  17.1773  17.2112
    17.7100

     occupation numbers 
     1.0000   1.0000   1.0000   1.0000   1.0000   1.0000   1.0000   1.0000
     1.0000   1.0000   1.0000   1.0000   1.0000   1.0000   1.0000   1.0000
     1.0000   1.0000   1.0000   1.0000   1.0000   0.0000   0.0000   0.0000
     0.0000

          k =-0.3402-0.6668 1.2928 (  5012 PWs)   bands (ev):

   -68.1394 -63.5510 -37.0803 -37.0773 -37.0584 -32.2174 -32.2052 -32.1927
    -5.4139  -5.3102   5.2378   5.5971   6.3152   6.5551   6.8789   7.7809
     8.1290   8.7826   9.2260  10.0703  10.6593  16.5203  17.0861  17.3766
    17.9665

     occupation numbers 
     1.0000   1.0000   1.0000   1.0000   1.0000   1.0000   1.0000   1.0000
     1.0000   1.0000   1.0000   1.0000   1.0000   1.0000   1.0000   1.0000
     1.0000   1.0000   1.0000   1.0000   1.0000   0.0000   0.0000   0.0000
     0.0000

          k =-1.4289 0.5307 0.5307 (  5023 PWs)   bands (ev):

   -68.1402 -63.5518 -37.0818 -37.0654 -37.0525 -32.2077 -32.2020 -32.1854
    -5.5292  -5.4744   5.4472   5.7621   6.2996   6.6965   7.3627   7.5728
     8.1224   8.6961   9.3327  10.2108  10.6844  16.0297  16.8727  17.5291
    17.6079

     occupation numbers 
     1.0000   1.0000   1.0000   1.0000   1.0000   1.0000   1.0000   1.0000
     1.0000   1.0000   1.0000   1.0000   1.0000   1.0000   1.0000   1.0000
     1.0000   1.0000   1.0000   1.0000   1.0000   0.0000   0.0000   0.0000
     0.0000

          k =-1.3608 0.5988 0.4355 (  5013 PWs)   bands (ev):

   -68.1397 -63.5514 -37.0812 -37.0710 -37.0546 -32.2093 -32.2066 -32.1881
    -5.4729  -5.4086   5.3285   5.7000   6.2743   6.6039   7.1950   7.7269
     8.1105   8.8063   9.3021  10.0835  10.6184  16.2001  16.9604  17.4886
    17.7993

     occupation numbers 
     1.0000   1.0000   1.0000   1.0000   1.0000   1.0000   1.0000   1.0000
     1.0000   1.0000   1.0000   1.0000   1.0000   1.0000   1.0000   1.0000
     1.0000   1.0000   1.0000   1.0000   1.0000   0.0000   0.0000   0.0000
     0.0000

          k =-1.2928 0.5035 0.5035 (  5004 PWs)   bands (ev):

   -68.1395 -63.5513 -37.0807 -37.0756 -37.0551 -32.2151 -32.2059 -32.1887
    -5.4606  -5.3394   5.2174   5.6446   6.2011   6.4895   7.4523   7.6934
     8.0810   8.8763   9.2174  10.1790  10.4360  16.2905  16.8711  17.7076
    17.7930

     occupation numbers 
     1.0000   1.0000   1.0000   1.0000   1.0000   1.0000   1.0000   1.0000
     1.0000   1.0000   1.0000   1.0000   1.0000   1.0000   1.0000   1.0000
     1.0000   1.0000   1.0000   1.0000   1.0000   0.0000   0.0000   0.0000
     0.0000

          k = 0.2449 0.2449 0.2449 (  5038 PWs)   bands (ev):

   -68.1422 -63.5531 -37.0838 -37.0480 -37.0480 -32.2109 -32.1799 -32.1799
    -5.8233  -5.5065   5.4336   6.2187   6.2187   7.0126   7.8769   7.8769
     8.0901   8.0902   8.8588  10.9978  10.9979  15.3593  16.2939  17.2572
    17.2572

     occupation numbers 
     1.0000   1.0000   1.0000   1.0000   1.0000   1.0000   1.0000   1.0000
     1.0000   1.0000   1.0000   1.0000   1.0000   1.0000   1.0000   1.0000
     1.0000   1.0000   1.0000   1.0000   1.0000   0.0000   0.0000   0.0000
     0.0000

          k = 0.3130 0.3130 0.1497 (  5027 PWs)   bands (ev):

   -68.1418 -63.5529 -37.0836 -37.0502 -37.0485 -32.2105 -32.1826 -32.1806
    -5.7663  -5.5251   5.5196   6.1021   6.2225   7.1012   7.5985   7.6866
     8.0467   8.3322   9.0378  10.8744  10.9088  15.5548  16.3544  17.2509
    17.3024

     occupation numbers 
     1.0000   1.0000   1.0000   1.0000   1.0000   1.0000   1.0000   1.0000
     1.0000   1.0000   1.0000   1.0000   1.0000   1.0000   1.0000   1.0000
     1.0000   1.0000   1.0000   1.0000   1.0000   0.0000   0.0000   0.0000
     0.0000

          k =-0.6396-0.6396 1.4833 (  5034 PWs)   bands (ev):

   -68.1410 -63.5524 -37.0829 -37.0563 -37.0501 -32.2094 -32.1905 -32.1826
    -5.6702  -5.5059   5.5540   5.8633   6.2433   7.0549   7.4662   7.5044
     8.0646   8.5885   9.3181  10.4436  10.7514  15.7225  16.7686  17.2298
    17.4358

     occupation numbers 
     1.0000   1.0000   1.0000   1.0000   1.0000   1.0000   1.0000   1.0000
     1.0000   1.0000   1.0000   1.0000   1.0000   1.0000   1.0000   1.0000
     1.0000   1.0000   1.0000   1.0000   1.0000   0.0000   0.0000   0.0000
     0.0000

          k =-0.5716-0.5716 1.3881 (  5023 PWs)   bands (ev):

   -68.1401 -63.5518 -37.0819 -37.0654 -37.0525 -32.2077 -32.2020 -32.1854
    -5.5597  -5.4428   5.4040   5.7799   6.2456   6.6739   7.4148   7.6681
     8.0928   8.7858   9.4121  10.1037  10.5733  15.9304  16.9749  17.5085
    17.6144

     occupation numbers 
     1.0000   1.0000   1.0000   1.0000   1.0000   1.0000   1.0000   1.0000
     1.0000   1.0000   1.0000   1.0000   1.0000   1.0000   1.0000   1.0000
     1.0000   1.0000   1.0000   1.0000   1.0000   0.0000   0.0000   0.0000
     0.0000

          k = 0.3810 0.2177 0.2177 (  5032 PWs)   bands (ev):

   -68.1417 -63.5528 -37.0836 -37.0502 -37.0485 -32.2105 -32.1827 -32.1806
    -5.7327  -5.5605   5.5931   6.0615   6.2768   7.0330   7.5758   7.6779
     8.1230   8.2028   9.0540  10.8095  11.0201  15.6806  16.2457  17.2553
    17.3064

     occupation numbers 
     1.0000   1.0000   1.0000   1.0000   1.0000   1.0000   1.0000   1.0000
     1.0000   1.0000   1.0000   1.0000   1.0000   1.0000   1.0000   1.0000
     1.0000   1.0000   1.0000   1.0000   1.0000   0.0000   0.0000   0.0000
     0.0000

          k =-0.5716-0.7349 1.5514 (  5040 PWs)   bands (ev):

   -68.1412 -63.5525 -37.0831 -37.0543 -37.0497 -32.2098 -32.1879 -32.1820
    -5.6560  -5.5593   5.6519   5.8507   6.2800   7.2254   7.3326   7.4472
     8.0972   8.4580   9.2627  10.5316  10.8926  15.7959  16.5215  17.2395
    17.3987

     occupation numbers 
     1.0000   1.0000   1.0000   1.0000   1.0000   1.0000   1.0000   1.0000
     1.0000   1.0000   1.0000   1.0000   1.0000   1.0000   1.0000   1.0000
     1.0000   1.0000   1.0000   1.0000   1.0000   0.0000   0.0000   0.0000
     0.0000

          k =-0.5035-0.6668 1.4561 (  5028 PWs)   bands (ev):

   -68.1404 -63.5520 -37.0822 -37.0617 -37.0519 -32.2084 -32.1973 -32.1847
    -5.5579  -5.5120   5.5178   5.7704   6.2833   6.9003   7.2501   7.5913
     8.0941   8.6989   9.4303  10.1418  10.7333  15.9225  16.9537  17.2551
    17.5326

     occupation numbers 
     1.0000   1.0000   1.0000   1.0000   1.0000   1.0000   1.0000   1.0000
     1.0000   1.0000   1.0000   1.0000   1.0000   1.0000   1.0000   1.0000
     1.0000   1.0000   1.0000   1.0000   1.0000   0.0000   0.0000   0.0000
     0.0000

          k =-1.5241 0.5988 0.5988 (  5031 PWs)   bands (ev):

   -68.1409 -63.5523 -37.0829 -37.0563 -37.0501 -32.2094 -32.1905 -32.1825
    -5.5992  -5.5786   5.6838   5.7620   6.2947   7.0935   7.3580   7.4660
     8.1003   8.4973   9.3297  10.4231  10.8518  15.8462  16.6277  17.2627
    17.4400

     occupation numbers 
     1.0000   1.0000   1.0000   1.0000   1.0000   1.0000   1.0000   1.0000
     1.0000   1.0000   1.0000   1.0000   1.0000   1.0000   1.0000   1.0000
     1.0000   1.0000   1.0000   1.0000   1.0000   0.0000   0.0000   0.0000
     0.0000

          k = 0.2858 0.2858 0.2858 (  5034 PWs)   bands (ev):

   -68.1420 -63.5529 -37.0838 -37.0480 -37.0480 -32.2110 -32.1799 -32.1799
    -5.7248  -5.6107   5.6371   6.2555   6.2556   6.7711   7.8833   7.8833
     8.0050   8.0050   8.8492  11.0503  11.0503  15.7091  16.0375  17.2512
    17.2512

     occupation numbers 
     1.0000   1.0000   1.0000   1.0000   1.0000   1.0000   1.0000   1.0000
     1.0000   1.0000   1.0000   1.0000   1.0000   1.0000   1.0000   1.0000
     1.0000   1.0000   1.0000   1.0000   1.0000   0.0000   0.0000   0.0000
     0.0000

          k =-0.6668-0.6668 1.6194 (  5034 PWs)   bands (ev):

   -68.1417 -63.5527 -37.0836 -37.0502 -37.0485 -32.2106 -32.1827 -32.1806
    -5.6713  -5.6236   5.6889   6.0256   6.2666   7.0002   7.5608   7.6690
     8.0722   8.2439   9.0351  10.8653  10.9884  15.8019  16.1608  17.2500
    17.3019

     occupation numbers 
     1.0000   1.0000   1.0000   1.0000   1.0000   1.0000   1.0000   1.0000
     1.0000   1.0000   1.0000   1.0000   1.0000   1.0000   1.0000   1.0000
     1.0000   1.0000   1.0000   1.0000   1.0000   0.0000   0.0000   0.0000
     0.0000

     the Fermi energy is    13.0018 ev

!    total energy              =    -504.63667294 Ry
     estimated scf accuracy    <          1.8E-15 Ry
     Hubbard accuracy          <       0.00000003 Ry

     The total energy is the sum of the following terms:
     one-electron contribution =    -210.66044523 Ry
     hartree contribution      =     127.93110757 Ry
     xc contribution           =     -90.57547974 Ry
     ewald contribution        =    -331.55346290 Ry
     Extended Hubbard energy   =       0.22160735 Ry

     total magnetization       =     0.00 Bohr mag/cell
     absolute magnetization    =     9.36 Bohr mag/cell

     convergence has been achieved in  33 iterations

     Writing all to output data dir ./temp/MnO.save/ :
     XML data file, charge density, pseudopotentials, collected wavefunctions
 
     init_run     :      2.50s CPU      2.56s WALL (       1 calls)
     electrons    :    457.05s CPU    460.89s WALL (       1 calls)

     Called by init_run:
     wfcinit      :      1.33s CPU      1.36s WALL (       1 calls)
     wfcinit:wfcr :      1.25s CPU      1.27s WALL (      43 calls)
     potinit      :      1.11s CPU      1.12s WALL (       1 calls)
     hinit0       :      0.04s CPU      0.05s WALL (       1 calls)

     Called by electrons:
     c_bands      :    132.77s CPU    134.28s WALL (      33 calls)
     sum_band     :    313.46s CPU    315.03s WALL (      33 calls)
     v_of_rho     :      2.75s CPU      2.91s WALL (      34 calls)
     v_h          :      0.03s CPU      0.03s WALL (      34 calls)
     v_xc         :      2.72s CPU      2.87s WALL (      34 calls)
     mix_rho      :      0.20s CPU      0.22s WALL (      33 calls)

     Called by c_bands:
     init_us_2    :      0.51s CPU      0.52s WALL (    2924 calls)
     init_us_2:cp :      0.51s CPU      0.52s WALL (    2924 calls)
     cegterg      :    107.51s CPU    108.70s WALL (    1419 calls)

     Called by sum_band:
     sum_band:wei :      0.32s CPU      0.34s WALL (      33 calls)
     sum_band:loo :     17.42s CPU     17.61s WALL (      33 calls)
     sum_band:buf :      0.05s CPU      0.05s WALL (    1419 calls)
     sum_band:ini :      0.24s CPU      0.25s WALL (    1419 calls)

     Called by *egterg:
     cdiaghg      :      4.84s CPU      4.89s WALL (    8052 calls)
     cegterg:over :      1.64s CPU      1.66s WALL (    6633 calls)
     cegterg:upda :      0.77s CPU      0.78s WALL (    6633 calls)
     cegterg:last :      0.99s CPU      1.00s WALL (    3195 calls)
     h_psi        :     99.82s CPU    100.94s WALL (    8095 calls)
     g_psi        :      0.14s CPU      0.14s WALL (    6633 calls)

     Called by h_psi:
     h_psi:calbec :      1.23s CPU      1.25s WALL (    8095 calls)
     vloc_psi     :     94.26s CPU     95.32s WALL (    8095 calls)
     add_vuspsi   :      1.18s CPU      1.19s WALL (    8095 calls)

     General routines
     calbec       :      1.76s CPU      1.79s WALL (   17695 calls)
     fft          :      0.39s CPU      0.42s WALL (     644 calls)
     ffts         :      0.10s CPU      0.10s WALL (      66 calls)
     fftw         :    103.22s CPU    104.42s WALL (  239575 calls)
 
     Parallel routines

     Extended Hubbard routines
     new_ns_e0_#1 :    248.63s CPU    249.76s WALL (      34 calls)
     vhpsi_v      :      3.04s CPU      3.08s WALL (    8095 calls)
 
     PWSCF        :   7m43.12s CPU   7m48.38s WALL

 
   This run was terminated on:   8:22:25   5Jan2024            

=------------------------------------------------------------------------------=
   JOB DONE.
=------------------------------------------------------------------------------=
