<preamble>

<basis_specs>
===============================================================================
Ag                   Z=  47    Mass=  107.87        Charge= 0.17977+309
Lmxo=2 Lmxkb= 2    BasisType=split      Semic=T
L=0  Nsemic=1  Cnfigmx=5
          i=1  nzeta=1  polorb=0  (4s)  (semicore shell)
            splnorm:   0.15000    
               vcte:    40.000    
               rinn:    2.3317    
               qcoe:    0.0000    
               qyuk:    0.0000    
               qwid:   0.10000E-01
                rcs:    2.5882    
            lambdas:    1.0000    
          i=2  nzeta=2  polorb=0  (5s)  (to be polarized non-perturbatively)
            splnorm:   0.15000    
               vcte:    40.000    
               rinn:    6.5149    
               qcoe:    0.0000    
               qyuk:    0.0000    
               qwid:   0.10000E-01
                rcs:    7.2388      5.1546    
            lambdas:    1.0000      1.0000    
L=1  Nsemic=1  Cnfigmx=5
          i=1  nzeta=1  polorb=0  (4p)  (semicore shell)
            splnorm:   0.15000    
               vcte:    40.000    
               rinn:    2.6434    
               qcoe:    0.0000    
               qyuk:    0.0000    
               qwid:   0.10000E-01
                rcs:    2.9371    
            lambdas:    1.0000    
          i=2  nzeta=1  polorb=0  (5p)  (non-perturbative polarization shell)
            splnorm:   0.15000    
               vcte:    40.000    
               rinn:    6.5214    
               qcoe:    0.0000    
               qyuk:    0.0000    
               qwid:   0.10000E-01
                rcs:    7.2388    
            lambdas:    1.0000    
L=2  Nsemic=0  Cnfigmx=4
          i=1  nzeta=2  polorb=0  (4d)
            splnorm:   0.15000    
               vcte:    40.000    
               rinn:    4.2433    
               qcoe:    0.0000    
               qyuk:    0.0000    
               qwid:   0.10000E-01
                rcs:    4.7148      2.9638    
            lambdas:    1.0000      1.0000    
-------------------------------------------------------------------------------
L=0  Nkbl=2  erefs: 0.17977+309 0.17977+309
L=1  Nkbl=2  erefs: 0.17977+309 0.17977+309
L=2  Nkbl=1  erefs: 0.17977+309
===============================================================================
</basis_specs>

<pseudopotential_header>
 Ag pw nrl pcec
 ONCVPSP-3.2018-03-09Hamann's oncvpsp                        
 4s 2.00  r= 1.41/4p 6.00  r= 1.47/4d10.00  r= 1.61/                    4s:4p:4d:5s:
</pseudopotential_header>
</preamble>
Ag                            # Symbol
Ag                            # Label
   47                         # Atomic number
     19.0000000000                             # Valence charge
     107.870000000        # Mass 
     404.708777617        # Self energy 
   2   7                      # Lmax for basis, no. of nl orbitals 
   2   6                      # Lmax for projectors, no. of nl KB projectors
# PAOs:__________________________
  0  4  1  0  2.000000   #orbital l, n, z, is_polarized, population
 500    0.5186830387233487E-02     2.588228363229510     # npts, delta, cutoff
     0.000000000000000         1.048891656398919    
    0.5186830387233487E-02     1.048968695126904    
    0.1037366077446697E-01     1.049299106920957    
    0.1556049116170046E-01     1.049849544801980    
    0.2074732154893395E-01     1.050619556332235    
    0.2593415193616744E-01     1.051608527832625    
    0.3112098232340092E-01     1.052815674228532    
    0.3630781271063441E-01     1.054240038192453    
    0.4149464309786790E-01     1.055880490577265    
    0.4668147348510138E-01     1.057735731249769    
    0.5186830387233488E-01     1.059804290145681    
    0.5705513425956836E-01     1.062084528496427    
    0.6224196464680185E-01     1.064574640210318    
    0.6742879503403533E-01     1.067272653400509    
    0.7261562542126883E-01     1.070176432055510    
    0.7780245580850231E-01     1.073283677849379    
    0.8298928619573580E-01     1.076591932089112    
    0.8817611658296928E-01     1.080098577796999    
    0.9336294697020277E-01     1.083800841925675    
    0.9854977735743627E-01     1.087695797703534    
    0.1037366077446698         1.091780367108141    
    0.1089234381319032         1.096051323465120    
    0.1141102685191367         1.100505294169919    
    0.1192970989063702         1.105138763529746    
    0.1244839292936037         1.109948075722827    
    0.1296707596808372         1.114929437872086    
    0.1348575900680707         1.120078923230164    
    0.1400444204553042         1.125392474472670    
    0.1452312508425377         1.130865907096380    
    0.1504180812297711         1.136494912919074    
    0.1556049116170046         1.142275063677546    
    0.1607917420042381         1.148201814720272    
    0.1659785723914716         1.154270508791111    
    0.1711654027787051         1.160476379900345    
    0.1763522331659386         1.166814557279296    
    0.1815390635531721         1.173280069414635    
    0.1867258939404055         1.179867848158492    
    0.1919127243276390         1.186572732910380    
    0.1970995547148725         1.193389474866869    
    0.2022863851021060         1.200312741334919    
    0.2074732154893395         1.207337120104713    
    0.2126600458765730         1.214457123877791    
    0.2178468762638065         1.221667194746241    
    0.2230337066510400         1.228961708718645    
    0.2282205370382734         1.236334980288496    
    0.2334073674255069         1.243781267040709    
    0.2385941978127404         1.251294774291868    
    0.2437810281999739         1.258869659759830    
    0.2489678585872074         1.266500038258264    
    0.2541546889744409         1.274179986411722    
    0.2593415193616744         1.281903547386826    
    0.2645283497489079         1.289664735635141    
    0.2697151801361413         1.297457541643325    
    0.2749020105233748         1.305275936686157    
    0.2800888409106083         1.313113877578031    
    0.2852756712978418         1.320965311418573    
    0.2904625016850753         1.328824180327986    
    0.2956493320723088         1.336684426167843    
    0.3008361624595423         1.344539995243004    
    0.3060229928467758         1.352384842980418    
    0.3112098232340093         1.360212938580580    
    0.3163966536212428         1.368018269637486    
    0.3215834840084762         1.375794846722944    
    0.3267703143957097         1.383536707931199    
    0.3319571447829432         1.391237923379828    
    0.3371439751701767         1.398892599662982    
    0.3423308055574102         1.406494884253062    
    0.3475176359446436         1.414038969847043    
    0.3527044663318771         1.421519098653661    
    0.3578912967191106         1.428929566617841    
    0.3630781271063441         1.436264727578729    
    0.3682649574935776         1.443518997357862    
    0.3734517878808111         1.450686857774026    
    0.3786386182680446         1.457762860581501    
    0.3838254486552781         1.464741631328419    
    0.3890122790425116         1.471617873132126    
    0.3941991094297451         1.478386370368492    
    0.3993859398169785         1.485041992272220    
    0.4045727702042120         1.491579696445323    
    0.4097596005914455         1.497994532271034    
    0.4149464309786790         1.504281644230533    
    0.4201332613659125         1.510436275119959    
    0.4253200917531459         1.516453769165327    
    0.4305069221403794         1.522329575033049    
    0.4356937525276129         1.528059248733908    
    0.4408805829148464         1.533638456418409    
    0.4460674133020799         1.539062977061604    
    0.4512542436893134         1.544328705035560    
    0.4564410740765469         1.549431652567793    
    0.4616279044637804         1.554367952084108    
    0.4668147348510139         1.559133858434397    
    0.4720015652382474         1.563725751000088    
    0.4771883956254808         1.568140135682059    
    0.4823752260127143         1.572373646767954    
    0.4875620563999478         1.576423048677970    
    0.4927488867871813         1.580285237588301    
    0.4979357171744148         1.583957242931594    
    0.5031225475616483         1.587436228773808    
    0.5083093779488818         1.590719495067120    
    0.5134962083361152         1.593804478778529    
    0.5186830387233488         1.596688754894032    
    0.5238698691105822         1.599370037298294    
    0.5290566994978158         1.601846179529925    
    0.5342435298850492         1.604115175412562    
    0.5394303602722826         1.606175159562071    
    0.5446171906595162         1.608024407770373    
    0.5498040210467496         1.609661337266411    
    0.5549908514339832         1.611084506855013    
    0.5601776818212166         1.612292616934415    
    0.5653645122084501         1.613284509393436    
    0.5705513425956836         1.614059167389299    
    0.5757381729829171         1.614615715007304    
    0.5809250033701506         1.614953416803615    
    0.5861118337573841         1.615071677232531    
    0.5912986641446175         1.614970039959780    
    0.5964854945318511         1.614648187063376    
    0.6016723249190845         1.614105938123800    
    0.6068591553063181         1.613343249205267    
    0.6120459856935515         1.612360211730003    
    0.6172328160807850         1.611157051247532    
    0.6224196464680185         1.609734126101042    
    0.6276064768552519         1.608091925993041    
    0.6327933072424855         1.606231070452548    
    0.6379801376297189         1.604152307206170    
    0.6431669680169524         1.601856510455533    
    0.6483537984041859         1.599344679063523    
    0.6535406287914194         1.596617934651966    
    0.6587274591786529         1.593677519613382    
    0.6639142895658864         1.590524795039558    
    0.6691011199531198         1.587161238569690    
    0.6742879503403534         1.583588442160989    
    0.6794747807275868         1.579808109784629    
    0.6846616111148204         1.575822055050000    
    0.6898484415020538         1.571632198760295    
    0.6950352718892873         1.567240566402463    
    0.7002221022765208         1.562649285574642    
    0.7054089326637543         1.557860583354208    
    0.7105957630509878         1.552876783609616    
    0.7157825934382213         1.547700304259225    
    0.7209694238254547         1.542333654480353    
    0.7261562542126883         1.536779431916334    
    0.7313430845999217         1.531040319784726    
    0.7365299149871553         1.525119083720438    
    0.7417167453743887         1.519018569145846    
    0.7469035757616221         1.512741698155537    
    0.7520904061488557         1.506291466495487    
    0.7572772365360891         1.499670940515644    
    0.7624640669233227         1.492883254099083    
    0.7676508973105561         1.485931605571060    
    0.7728377276977896         1.478819254591251    
    0.7780245580850231         1.471549519032441    
    0.7832113884722566         1.464125771848930    
    0.7883982188594901         1.456551437937877    
    0.7935850492467236         1.448829990996805    
    0.7987718796339570         1.440964950380424    
    0.8039587100211906         1.432959877959926    
    0.8091455404084240         1.424818374987864    
    0.8143323707956576         1.416544078971657    
    0.8195192011828910         1.408140660558767    
    0.8247060315701245         1.399611820436502    
    0.8298928619573580         1.390961286249378    
    0.8350796923445915         1.382192809536908    
    0.8402665227318250         1.373310162694620    
    0.8454533531190584         1.364317135961069    
    0.8506401835062919         1.355217534433528    
    0.8558270138935254         1.346015175114969    
    0.8610138442807589         1.336713883994912    
    0.8662006746679924         1.327317493166604    
    0.8713875050552259         1.317829837982954    
    0.8765743354424593         1.308254754253547    
    0.8817611658296929         1.298596075485005    
    0.8869479962169263         1.288857630166868    
    0.8921348266041599         1.279043239105071    
    0.8973216569913933         1.269156712805070    
    0.9025084873786268         1.259201848906488    
    0.9076953177658603         1.249182429671160    
    0.9128821481530938         1.239102219526298    
    0.9180689785403273         1.228964962664450    
    0.9232558089275608         1.218774380701803    
    0.9284426393147942         1.208534170396310    
    0.9336294697020278         1.198248001427019    
    0.9388163000892612         1.187919514235884    
    0.9440031304764948         1.177552317933242    
    0.9491899608637282         1.167149988268064    
    0.9543767912509616         1.156716065663944    
    0.9595636216381952         1.146254053321763    
    0.9647504520254286         1.135767415389792    
    0.9699372824126622         1.125259575201970    
    0.9751241127998956         1.114733913584937    
    0.9803109431871291         1.104193767234354    
    0.9854977735743626         1.093642427160920    
    0.9906846039615961         1.083083137206388    
    0.9958714343488295         1.072519092629845    
     1.001058264736063         1.061953438764338    
     1.006245095123297         1.051389269743927    
     1.011431925510530         1.040829627301078    
     1.016618755897764         1.030277499634289    
     1.021805586284997         1.019735820345670    
     1.026992416672230         1.009207467448204    
     1.032179247059464        0.9986952624422480    
     1.037366077446698        0.9882019694608025    
     1.042552907833931        0.9777302944829731    
     1.047739738221164        0.9672828846149623    
     1.052926568608398        0.9568623274378768    
     1.058113398995632        0.9464711504215373    
     1.063300229382865        0.9361118204034012    
     1.068487059770098        0.9257867431316659    
     1.073673890157332        0.9154982628715181    
     1.078860720544565        0.9052486620734523    
     1.084047550931799        0.8950401611025068    
     1.089234381319032        0.8848749180272112    
     1.094421211706266        0.8747550284669763    
     1.099608042093499        0.8646825254966106    
     1.104794872480733        0.8546593796065797    
     1.109981702867966        0.8446874987176117    
     1.115168533255200        0.8347687282481554    
     1.120355363642433        0.8249048512331989    
     1.125542194029667        0.8150975884929026    
     1.130729024416900        0.8053485988494559    
     1.135915854804134        0.7956594793905477    
     1.141102685191367        0.7860317657778132    
     1.146289515578601        0.7764669325985631    
     1.151476345965834        0.7669663937591391    
     1.156663176353068        0.7575315029181544    
     1.161850006740301        0.7481635539579026    
     1.167036837127535        0.7388637814922004    
     1.172223667514768        0.7296333614089118    
     1.177410497902002        0.7204734114453889    
     1.182597328289235        0.7113849917950957    
     1.187784158676469        0.7023691057436379    
     1.192970989063702        0.6934267003324490    
     1.198157819450936        0.6845586670484104    
     1.203344649838169        0.6757658425376296    
     1.208531480225403        0.6670490093416961    
     1.213718310612636        0.6584088966546872    
     1.218905140999869        0.6498461810992370    
     1.224091971387103        0.6413614875200165    
     1.229278801774337        0.6329553897929792    
     1.234465632161570        0.6246284116487528    
     1.239652462548803        0.6163810275086177    
     1.244839292936037        0.6082136633314948    
     1.250026123323271        0.6001266974704561    
     1.255212953710504        0.5921204615372559    
     1.260399784097737        0.5841952412734793    
     1.265586614484971        0.5763512774268728    
     1.270773444872204        0.5685887666315447    
     1.275960275259438        0.5609078622906979    
     1.281147105646671        0.5533086754606648    
     1.286333936033905        0.5457912757350133    
     1.291520766421138        0.5383556921275778    
     1.296707596808372        0.5310019139533086    
     1.301894427195605        0.5237298917058776    
     1.307081257582839        0.5165395379310538    
     1.312268087970072        0.5094307280948914    
     1.317454918357306        0.5024033014458608    
     1.322641748744539        0.4954570618700737    
     1.327828579131773        0.4885917787388349    
     1.333015409519006        0.4818071877478207    
     1.338202239906240        0.4751029917471992    
     1.343389070293473        0.4684788615621230    
     1.348575900680707        0.4619344368030274    
     1.353762731067940        0.4554693266652806    
     1.358949561455174        0.4490831107177328    
     1.364136391842407        0.4427753396798238    
     1.369323222229641        0.4365455361503993    
     1.374510052616874        0.4303931952807433    
     1.379696883004108        0.4243177857562592    
     1.384883713391341        0.4183187507071394    
     1.390070543778575        0.4123955087065018    
     1.395257374165808        0.4065474534428498    
     1.400444204553042        0.4007739535436586    
     1.405631034940275        0.3950743529332729    
     1.410817865327509        0.3894479733759756    
     1.416004695714742        0.3838941185011185    
     1.421191526101976        0.3784120780519084    
     1.426378356489209        0.3730011324345506    
     1.431565186876443        0.3676605571568933    
     1.436752017263676        0.3623896267913878    
     1.441938847650909        0.3571876177869440    
     1.447125678038143        0.3520538085203228    
     1.452312508425377        0.3469874788723292    
     1.457499338812610        0.3419879092768322    
     1.462686169199843        0.3370543810382522    
     1.467872999587077        0.3321861768522389    
     1.473059829974311        0.3273825812853172    
     1.478246660361544        0.3226428811063272    
     1.483433490748777        0.3179663654232499    
     1.488620321136011        0.3133523259013554    
     1.493807151523244        0.3088000569736597    
     1.498993981910478        0.3043088560447493    
     1.504180812297711        0.2998780236830020    
     1.509367642684945        0.2955068638022395    
     1.514554473072178        0.2911946838335677    
     1.519741303459412        0.2869407948877607    
     1.524928133846645        0.2827445119085419    
     1.530114964233879        0.2786051538170993    
     1.535301794621112        0.2745220436481520    
     1.540488625008346        0.2704945086778951    
     1.545675455395579        0.2665218805441218    
     1.550862285782813        0.2626034953588320    
     1.556049116170046        0.2587386937857645    
     1.561235946557280        0.2549268208263256    
     1.566422776944513        0.2511672263869743    
     1.571609607331747        0.2474592653088359    
     1.576796437718980        0.2438022973756178    
     1.581983268106214        0.2401956873863002    
     1.587170098493447        0.2366388052222562    
     1.592356928880681        0.2331310259088948    
     1.597543759267914        0.2296717296720482    
     1.602730589655148        0.2262603019893125    
     1.607917420042381        0.2228961336365500    
     1.613104250429614        0.2195786207297470    
     1.618291080816848        0.2163071647624169    
     1.623477911204082        0.2130811726387335    
     1.628664741591315        0.2099000567025765    
     1.633851571978548        0.2067632347626520    
     1.639038402365782        0.2036701301138613    
     1.644225232753016        0.2006201715550742    
     1.649412063140249        0.1976127934034610    
     1.654598893527482        0.1946474355055367    
     1.659785723914716        0.1917235432450571    
     1.664972554301949        0.1888405675479065    
     1.670159384689183        0.1859979648841116    
     1.675346215076416        0.1831951972671141    
     1.680533045463650        0.1804317322504158    
     1.685719875850883        0.1777070429217325    
     1.690906706238117        0.1750206078947597    
     1.696093536625350        0.1723719112986696    
     1.701280367012584        0.1697604427654431    
     1.706467197399817        0.1671856974151411    
     1.711654027787051        0.1646471758392209    
     1.716840858174284        0.1621443840819863    
     1.722027688561518        0.1596768336202684    
     1.727214518948751        0.1572440413414295    
     1.732401349335985        0.1548455295197714    
     1.737588179723218        0.1524808257914347    
     1.742775010110452        0.1501494631278686    
     1.747961840497685        0.1478509798079473    
     1.753148670884919        0.1455849193888077    
     1.758335501272152        0.1433508306754843    
     1.763522331659386        0.1411482676893991    
     1.768709162046619        0.1389767896357871    
     1.773895992433853        0.1368359608701084    
     1.779082822821086        0.1347253508635180    
     1.784269653208320        0.1326445341674441    
     1.789456483595553        0.1305930903773378    
     1.794643313982787        0.1285706040956441    
     1.799830144370020        0.1265766648940521    
     1.805016974757254        0.1246108672750668    
     1.810203805144487        0.1226728106329568    
     1.815390635531721        0.1207620992141260    
     1.820577465918954        0.1188783420769438    
     1.825764296306188        0.1170211530510886    
     1.830951126693421        0.1151901506964390    
     1.836137957080655        0.1133849582615511    
     1.841324787467888        0.1116052036417644    
     1.846511617855122        0.1098505193369679    
     1.851698448242355        0.1081205424090647    
     1.856885278629588        0.1064149144391644    
     1.862072109016822        0.1047332814845396    
     1.867258939404056        0.1030752940353741    
     1.872445769791289        0.1014406069713307    
     1.877632600178522        0.9982887951797131E-01
     1.882819430565756        0.9823977520305098E-01
     1.888006260952990        0.9667296181271437E-01
     1.893193091340223        0.9512811134761805E-01
     1.898379921727456        0.9360489997900277E-01
     1.903566752114690        0.9210300800473502E-01
     1.908753582501923        0.9062211980534354E-01
     1.913940412889157        0.8916192380007040E-01
     1.919127243276390        0.8772211240294799E-01
     1.924314073663624        0.8630238197893406E-01
     1.929500904050857        0.8490243280011178E-01
     1.934687734438091        0.8352196900197328E-01
     1.939874564825324        0.8216069853980613E-01
     1.945061395212558        0.8081833314519662E-01
     1.950248225599791        0.7949458828265910E-01
     1.955435055987025        0.7818918310641329E-01
     1.960621886374258        0.7690184041731742E-01
     1.965808716761492        0.7563228661996738E-01
     1.970995547148725        0.7438025167997972E-01
     1.976182377535959        0.7314546908146598E-01
     1.981369207923192        0.7192767578470521E-01
     1.986556038310426        0.7072661218403131E-01
     1.991742868697659        0.6954202206594157E-01
     1.996929699084893        0.6837365256743023E-01
     2.002116529472126        0.6722125413456459E-01
     2.007303359859359        0.6608458048130332E-01
     2.012490190246593        0.6496338854856702E-01
     2.017677020633827        0.6385743846356952E-01
     2.022863851021060        0.6276649349941253E-01
     2.028050681408294        0.6169032003495206E-01
     2.033237511795527        0.6062868751494199E-01
     2.038424342182760        0.5958136841045814E-01
     2.043611172569994        0.5854813817960865E-01
     2.048798002957227        0.5752877522853599E-01
     2.053984833344461        0.5652306087271124E-01
     2.059171663731695        0.5553077929852816E-01
     2.064358494118928        0.5455171752519810E-01
     2.069545324506161        0.5358566536694839E-01
     2.074732154893395        0.5263241539552888E-01
     2.079918985280628        0.5169176290302693E-01
     2.085105815667862        0.5076350586499339E-01
     2.090292646055095        0.4984744490388463E-01
     2.095479476442329        0.4894338325281484E-01
     2.100666306829563        0.4805112671962902E-01
     2.105853137216796        0.4717048365129192E-01
     2.111039967604029        0.4630126489859358E-01
     2.116226797991263        0.4544328378117705E-01
     2.121413628378496        0.4459635605288322E-01
     2.126600458765730        0.4376029986741709E-01
     2.131787289152963        0.4293493574433332E-01
     2.136974119540197        0.4212008653534215E-01
     2.142160949927430        0.4131557739093528E-01
     2.147347780314664        0.4052123572733042E-01
     2.152534610701897        0.3973689119373597E-01
     2.157721441089131        0.3896237563993351E-01
     2.162908271476364        0.3819752308417693E-01
     2.168095101863598        0.3744216968140972E-01
     2.173281932250831        0.3669615369179621E-01
     2.178468762638065        0.3595931544956830E-01
     2.183655593025298        0.3523149733218435E-01
     2.188842423412532        0.3451254372980012E-01
     2.194029253799765        0.3380230101504993E-01
     2.199216084186999        0.3310061751313510E-01
     2.204402914574232        0.3240734347222184E-01
     2.209589744961466        0.3172233103414084E-01
     2.214776575348699        0.3104543420539222E-01
     2.219963405735933        0.3037650882845129E-01
     2.225150236123166        0.2971541255337293E-01
     2.230337066510399        0.2906200480969325E-01
     2.235523896897633        0.2841614677862573E-01
     2.240710727284867        0.2777770136555151E-01
     2.245897557672100        0.2714653317279723E-01
     2.251084388059334        0.2652250847270399E-01
     2.256271218446567        0.2590549518098013E-01
     2.261458048833800        0.2529536283033739E-01
     2.266644879221034        0.2469198254440802E-01
     2.271831709608267        0.2409522701193974E-01
     2.277018539995501        0.2350497046126675E-01
     2.282205370382735        0.2292108863505264E-01
     2.287392200769968        0.2234345876530597E-01
     2.292579031157202        0.2177195954866070E-01
     2.297765861544435        0.2120647112192158E-01
     2.302952691931668        0.2064687503787298E-01
     2.308139522318902        0.2009305424134673E-01
     2.313326352706135        0.1954489304554856E-01
     2.318513183093369        0.1900227710863445E-01
     2.323700013480603        0.1846509341054147E-01
     2.328886843867836        0.1793323023006445E-01
     2.334073674255069        0.1740657712217825E-01
     2.339260504642303        0.1688502489560289E-01
     2.344447335029536        0.1636846559060784E-01
     2.349634165416770        0.1585679245859593E-01
     2.354820995804003        0.1534990002860813E-01
     2.360007826191237        0.1484768516301312E-01
     2.365194656578470        0.1435005179014123E-01
     2.370381486965704        0.1385692133111199E-01
     2.375568317352937        0.1336824688875716E-01
     2.380755147740170        0.1288402690809707E-01
     2.385941978127404        0.1240431491961294E-01
     2.391128808514638        0.1192922406910964E-01
     2.396315638901871        0.1145892675232866E-01
     2.401502469289105        0.1099365044625965E-01
     2.406689299676338        0.1053367099424672E-01
     2.411876130063572        0.1007930445784255E-01
     2.417062960450805        0.9630898397814379E-02
     2.422249790838038        0.9188823194568081E-02
     2.427436621225272        0.8753463806711659E-02
     2.432623451612506        0.8325212205096829E-02
     2.437810281999739        0.7904460604048077E-02
     2.442997112386973        0.7491595532596621E-02
     2.448183942774206        0.7086992737209497E-02
     2.453370773161439        0.6691012875899765E-02
     2.458557603548673        0.6303997945654095E-02
     2.463744433935906        0.5926268376306192E-02
     2.468931264323140        0.5558120721124601E-02
     2.474118094710374        0.5199825875195747E-02
     2.479304925097607        0.4851627755649924E-02
     2.484491755484840        0.4513742381823010E-02
     2.489678585872074        0.4186357297870032E-02
     2.494865416259307        0.3869631284629675E-02
     2.500052246646541        0.3563694311317698E-02
     2.505239077033774        0.3268647680557077E-02
     2.510425907421008        0.2984564321973575E-02
     2.515612737808242        0.2711489189607369E-02
     2.520799568195475        0.2449439715957748E-02
     2.525986398582708        0.2198406269337507E-02
     2.531173228969942        0.1958352549175850E-02
     2.536360059357175        0.1729215832002385E-02
     2.541546889744409        0.1510906941549515E-02
     2.546733720131642        0.1303309744810894E-02
     2.551920550518876        0.1106279840630324E-02
     2.557107380906109        0.9196418379610128E-03
     2.562294211293343        0.7431840447135269E-03
     2.567481041680576        0.5766480350546359E-03
     2.572667872067810        0.4197069601269734E-03
     2.577854702455043        0.2719149990260411E-03
     2.583041532842277        0.1325619765036636E-03
     2.588228363229510         0.000000000000000    
  0  5  1  0  1.000000   #orbital l, n, z, is_polarized, population
 500    0.1450652426675257E-01     7.238755609109535     # npts, delta, cutoff
     0.000000000000000        0.5039472263662991    
    0.1450652426675257E-01    0.5042286880768195    
    0.2901304853350515E-01    0.5051177361038958    