<preamble>

<basis_specs>
===============================================================================
Au                   Z=  79    Mass=  196.97        Charge= 0.17977+309
Lmxo=2 Lmxkb= 3    BasisType=split      Semic=T
L=0  Nsemic=1  Cnfigmx=6
          i=1  nzeta=1  polorb=0  (5s)  (semicore shell)
            splnorm:   0.15000    
               vcte:    40.000    
               rinn:    2.2831    
               qcoe:    0.0000    
               qyuk:    0.0000    
               qwid:   0.10000E-01
                rcs:    2.5368    
            lambdas:    1.0000    
          i=2  nzeta=2  polorb=0  (6s)  (to be polarized non-perturbatively)
            splnorm:   0.15000    
               vcte:    40.000    
               rinn:    5.8004    
               qcoe:    0.0000    
               qyuk:    0.0000    
               qwid:   0.10000E-01
                rcs:    6.4448      4.5386    
            lambdas:    1.0000      1.0000    
L=1  Nsemic=1  Cnfigmx=6
          i=1  nzeta=1  polorb=0  (5p)  (semicore shell)
            splnorm:   0.15000    
               vcte:    40.000    
               rinn:    2.7051    
               qcoe:    0.0000    
               qyuk:    0.0000    
               qwid:   0.10000E-01
                rcs:    3.0027    
            lambdas:    1.0000    
          i=2  nzeta=1  polorb=0  (6p)  (non-perturbative polarization shell)
            splnorm:   0.15000    
               vcte:    40.000    
               rinn:    5.8062    
               qcoe:    0.0000    
               qyuk:    0.0000    
               qwid:   0.10000E-01
                rcs:    6.4448    
            lambdas:    1.0000    
L=2  Nsemic=0  Cnfigmx=5
          i=1  nzeta=2  polorb=0  (5d)
            splnorm:   0.15000    
               vcte:    40.000    
               rinn:    4.5153    
               qcoe:    0.0000    
               qyuk:    0.0000    
               qwid:   0.10000E-01
                rcs:    5.0170      3.2341    
            lambdas:    1.0000      1.0000    
-------------------------------------------------------------------------------
L=0  Nkbl=2  erefs: 0.17977+309 0.17977+309
L=1  Nkbl=2  erefs: 0.17977+309 0.17977+309
L=2  Nkbl=1  erefs: 0.17977+309
L=3  Nkbl=1  erefs: 0.17977+309
===============================================================================
</basis_specs>

<pseudopotential_header>
 Au pw nrl pcec
 ONCVPSP-3.2018-03-09Hamann's oncvpsp                        
 5s 2.00  r= 1.46/5p 6.00  r= 1.56/5d10.00  r= 1.56/5f 0.00  r= 1.60/   5s:5p:5d:6s:
</pseudopotential_header>
</preamble>
Au                            # Symbol
Au                            # Label
   79                         # Atomic number
     19.0000000000                             # Valence charge
     196.970000000        # Mass 
     373.234834327        # Self energy 
   2   7                      # Lmax for basis, no. of nl orbitals 
   3   7                      # Lmax for projectors, no. of nl KB projectors
# PAOs:__________________________
  0  5  1  0  2.000000   #orbital l, n, z, is_polarized, population
 500    0.5083727444059211E-02     2.536779994585546     # npts, delta, cutoff
     0.000000000000000        0.9778802340219596    
    0.5083727444059211E-02    0.9779508500065593    
    0.1016745488811842E-01    0.9782552779991069    
    0.1525118233217763E-01    0.9787624641026818    
    0.2033490977623684E-01    0.9794720415398078    
    0.2541863722029605E-01    0.9803835154543538    
    0.3050236466435527E-01    0.9814962531145811    
    0.3558609210841448E-01    0.9828094829202563    
    0.4066981955247369E-01    0.9843222945985551    
    0.4575354699653290E-01    0.9860336397422367    
    0.5083727444059211E-01    0.9879423325203570    
    0.5592100188465132E-01    0.9900470505147839    
    0.6100472932871053E-01    0.9923463356664584    
    0.6608845677276974E-01    0.9948385953247484    
    0.7117218421682896E-01    0.9975221033965417    
    0.7625591166088816E-01     1.000395001592992    
    0.8133963910494738E-01     1.003455300772372    
    0.8642336654900659E-01     1.006700882377649    
    0.9150709399306579E-01     1.010129499967527    
    0.9659082143712501E-01     1.013738780839629    
    0.1016745488811842         1.017526227744512    
    0.1067582763252434         1.021489220689147    
    0.1118420037693026         1.025625018828406    
    0.1169257312133618         1.029930762443099    
    0.1220094586574211         1.034403475002986    
    0.1270931861014803         1.039040065313141    
    0.1321769135455395         1.043837329741987    
    0.1372606409895987         1.048791954529269    
    0.1423443684336579         1.053900518172118    
    0.1474280958777171         1.059159493887369    
    0.1525118233217763         1.064565252148169    
    0.1575955507658355         1.070114063292893    
    0.1626792782098948         1.075802100204311    
    0.1677630056539540         1.081625441056885    
    0.1728467330980132         1.087580072130042    
    0.1779304605420724         1.093661890685184    
    0.1830141879861316         1.099866707904179    
    0.1880979154301908         1.106190251886978    
    0.1931816428742500         1.112628170706018    
    0.1982653703183092         1.119176035514954    
    0.2033490977623684         1.125829343709267    
    0.2084328252064276         1.132583522136234    
    0.2135165526504869         1.139433930351700    
    0.2186002800945461         1.146375863921066    
    0.2236840075386053         1.153404557761833    
    0.2287677349826645         1.160515189525075    
    0.2338514624267237         1.167702883013097    
    0.2389351898707829         1.174962711630573    
    0.2440189173148421         1.182289701866376    
    0.2491026447589013         1.189678836803334    
    0.2541863722029605         1.197125059653077    
    0.2592700996470197         1.204623277313146    
    0.2643538270910790         1.212168363943494    
    0.2694375545351382         1.219755164559537    
    0.2745212819791974         1.227378498638814    
    0.2796050094232566         1.235033163738407    
    0.2846887368673158         1.242713939120161    
    0.2897724643113750         1.250415589380819    
    0.2948561917554343         1.258132868084131    
    0.2999399191994934         1.265860521392010    
    0.3050236466435526         1.273593291691817    
    0.3101073740876119         1.281325921216846    
    0.3151911015316711         1.289053155657093    
    0.3202748289757303         1.296769747757404    
    0.3253585564197895         1.304470460900106    
    0.3304422838638487         1.312150072669230    
    0.3355260113079079         1.319803378393469    
    0.3406097387519672         1.327425194665030    
    0.3456934661960264         1.335010362831535    
    0.3507771936400856         1.342553752458206    
    0.3558609210841447         1.350050264757530    
    0.3609446485282040         1.357494835983692    
    0.3660283759722632         1.364882440789041    
    0.3711121034163224         1.372208095539965    
    0.3761958308603816         1.379466861589478    
    0.3812795583044408         1.386653848503997    
    0.3863632857485000         1.393764217241715    
    0.3914470131925593         1.400793183280088    
    0.3965307406366185         1.407736019690001    
    0.4016144680806777         1.414588060154171    
    0.4066981955247368         1.421344701927505    
    0.4117819229687961         1.428001408737064    
    0.4168656504128553         1.434553713619453    
    0.4219493778569145         1.440997221693427    
    0.4270331053009737         1.447327612865663    
    0.4321168327450329         1.453540644467595    
    0.4372005601890921         1.459632153821405    
    0.4422842876331514         1.465598060733220    
    0.4473680150772106         1.471434369911720    
    0.4524517425212698         1.477137173310397    
    0.4575354699653290         1.482702652391765    
    0.4626191974093882         1.488127080311962    
    0.4677029248534474         1.493406824024166    
    0.4727866522975066         1.498538346299448    
    0.4778703797415658         1.503518207663660    
    0.4829541071856250         1.508343068249087    
    0.4880378346296843         1.513009689559700    
    0.4931215620737435         1.517514936148879    
    0.4982052895178027         1.521855777208603    
    0.5032890169618619         1.526029288069179    
    0.5083727444059211         1.530032651608670    
    0.5134564718499803         1.533863159571273    
    0.5185401992940395         1.537518213793992    
    0.5236239267380988         1.540995327341035    
    0.5287076541821579         1.544292125545473    
    0.5337913816262172         1.547406346957759    
    0.5388751090702764         1.550335844200838    
    0.5439588365143355         1.553078584731632    
    0.5490425639583948         1.555632651508815    
    0.5541262914024540         1.557996243566840    
    0.5592100188465132         1.560167676496327    
    0.5642937462905724         1.562145382830957    
    0.5693774737346317         1.563927912341152    
    0.5744612011786908         1.565513932234887    
    0.5795449286227501         1.566902227266084    
    0.5846286560668092         1.568091699751102    
    0.5897123835108685         1.569081369493980    
    0.5947961109549277         1.569870373621102    
    0.5998798383989868         1.570457966326107    
    0.6049635658430461         1.570843518525905    
    0.6100472932871053         1.571026517428778    
    0.6151310207311645         1.571006566015608    
    0.6202147481752237         1.570783382435341    
    0.6252984756192830         1.570356799315912    
    0.6303822030633421         1.569726762991909    
    0.6354659305074014         1.568893332650326    
    0.6405496579514606         1.567856679395843    
    0.6456333853955198         1.566617085237124    
    0.6507171128395790         1.565174941995722    
    0.6558008402836382         1.563530750139205    
    0.6608845677276974         1.561685117540234    
    0.6659682951717566         1.559638758163326    
    0.6710520226158159         1.557392490681152    
    0.6761357500598750         1.554947237022243    
    0.6812194775039343         1.552304020852029    
    0.6863032049479935         1.549463965989221    
    0.6913869323920527         1.546428294759559    
    0.6964706598361119         1.543198326289009    
    0.7015543872801712         1.539775474738544    
    0.7066381147242303         1.536161247482679    
    0.7117218421682895         1.532357243233965    
    0.7168055696123488         1.528365150115671    
    0.7218892970564079         1.524186743684960    
    0.7269730245004672         1.519823884908827    
    0.7320567519445264         1.515278518095148    
    0.7371404793885856         1.510552668781205    
    0.7422242068326448         1.505648441582025    
    0.7473079342767041         1.500568017952697    
    0.7523916617207632         1.495313664950249    
    0.7574753891648225         1.489887701587098    
    0.7625591166088816         1.484292525107044    
    0.7676428440529408         1.478530602002675    
    0.7727265714970001         1.472604464225612    
    0.7778102989410592         1.466516706821235    
    0.7828940263851185         1.460269985542572    
    0.7879777538291777         1.453867014445824    
    0.7930614812732369         1.447310563469880    
    0.7981452087172961         1.440603456002274    
    0.8032289361613554         1.433748566433918    
    0.8083126636054145         1.426748817705014    
    0.8133963910494737         1.419607178844466    
    0.8184801184935330         1.412326662505128    
    0.8235638459375921         1.404910322497168    
    0.8286475733816514         1.397361251321829    
    0.8337313008257106         1.389682577707815    
    0.8388150282697698         1.381877464152511    
    0.8438987557138290         1.373949104470194    
    0.8489824831578883         1.365900721349377    
    0.8540662106019474         1.357735563921370    
    0.8591499380460067         1.349456905342102    
    0.8642336654900659         1.341068040389217    
    0.8693173929341250         1.332572283076394    
    0.8744011203781843         1.323972964286809    
    0.8794848478222435         1.315273429427597    
    0.8845685752663027         1.306477036107111    
    0.8896523027103619         1.297587151836766    
    0.8947360301544212         1.288607151759142    
    0.8998197575984803         1.279540416404012    
    0.9049034850425396         1.270390329473874    
    0.9099872124865988         1.261160275660538    
    0.9150709399306580         1.251853638494220    
    0.9201546673747172         1.242473798226583    
    0.9252383948187763         1.233024129749061    
    0.9303221222628356         1.223508000547773    
    0.9354058497068948         1.213928768696244    
    0.9404895771509540         1.204289780887116    
    0.9455733045950132         1.194594370503946    
    0.9506570320390725         1.184845855734141    
    0.9557407594831316         1.175047537723992    
    0.9608244869271909         1.165202698776751    
    0.9659082143712501         1.155314600594570    
    0.9709919418153093         1.145386482565107    
    0.9760756692593685         1.135421560093530    
    0.9811593967034277         1.125423022980551    
    0.9862431241474869         1.115394033847118    
    0.9913268515915461         1.105337726606276    
    0.9964105790356054         1.095257204982681    
     1.001494306479665         1.085155541080171    
     1.006578033923724         1.075035773997743    
     1.011661761367783         1.064900908494223    
     1.016745488811842         1.054753913701864    
     1.021829216255902         1.044597721889032    
     1.026912943699961         1.034435227272092    
     1.031996671144020         1.024269284876567    
     1.037080398588079         1.014102709447528    
     1.042164126032138         1.003938274409222    
     1.047247853476198        0.9937787108737558    
     1.052331580920257        0.9836267066987359    
     1.057415308364316        0.9734849055936227    
     1.062499035808375        0.9633559062745366    
     1.067582763252434        0.9532422616672194    
     1.072666490696494        0.9431464781577892    
     1.077750218140553        0.9330710148908772    
     1.082833945584612        0.9230182831147306    
     1.087917673028671        0.9129906455727587    
     1.093001400472730        0.9029904159410228    
     1.098085127916790        0.8930198583110894    
     1.103168855360849        0.8830811867176593    
     1.108252582804908        0.8731765647103182    
     1.113336310248967        0.8633081049687408    
     1.118420037693026        0.8534778689606668    
     1.123503765137086        0.8436878666418809    
     1.128587492581145        0.8339400561974607    
     1.133671220025204        0.8242363438234960    
     1.138754947469263        0.8145785835484748    
     1.143838674913322        0.8049685770934764    
     1.148922402357382        0.7954080737703425    
     1.154006129801441        0.7858987704169409    
     1.159089857245500        0.7764423113686146    
     1.164173584689559        0.7670402884649199    
     1.169257312133618        0.7576942410907305    
     1.174341039577678        0.7484056562507494    
     1.179424767021737        0.7391759686765138    
     1.184508494465796        0.7300065609649029    
     1.189592221909855        0.7208987637472016    
     1.194675949353915        0.7118538558877497    
     1.199759676797974        0.7028730647111902    
     1.204843404242033        0.6939575662573504    
     1.209927131686092        0.6851084855627735    
     1.215010859130151        0.6763268969679098    
     1.220094586574211        0.6676138244490174    
     1.225178314018270        0.6589702419737626    
     1.230262041462329        0.6503970738795906    
     1.235345768906388        0.6418951952738619    
     1.240429496350447        0.6334654324548371    
     1.245513223794507        0.6251085633525333    
     1.250596951238566        0.6168253179885307    
     1.255680678682625        0.6086163789537937    
     1.260764406126684        0.6004823819036015    
     1.265848133570743        0.5924239160686773    
     1.270931861014803        0.5844415247816303    
     1.276015588458862        0.5765357060178485    
     1.281099315902921        0.5687069129499700    
     1.286183043346980        0.5609555545151089    
     1.291266770791040        0.5532819959940053    
     1.296350498235099        0.5456865596013046    
     1.301434225679158        0.5381695250861730    
     1.306517953123217        0.5307311303424983    
     1.311601680567276        0.5233715720279294    
     1.316685408011336        0.5160910061910261    
     1.321769135455395        0.5088895489058416    
     1.326852862899454        0.5017672769132273    
     1.331936590343513        0.4947242282682482    
     1.337020317787573        0.4877604029930414    
     1.342104045231632        0.4808757637345339    
     1.347187772675691        0.4740702364264302    
     1.352271500119750        0.4673437109549008    
     1.357355227563809        0.4606960418274625    
     1.362438955007869        0.4541270488445002    
     1.367522682451928        0.4476365177729941    
     1.372606409895987        0.4412242010219379    
     1.377690137340046        0.4348898183190546    
     1.382773864784105        0.4286330573883733    
     1.387857592228165        0.4224535746282828    
     1.392941319672224        0.4163509957896970    
     1.398025047116283        0.4103249166540039    
     1.403108774560342        0.4043749037104589    
     1.408192502004401        0.3985004948202114    
     1.413276229448461        0.3927011997687525    
     1.418359956892520        0.3869765010996004    
     1.423443684336579        0.3813258549990038    
     1.428527411780638        0.3757486923035435    
     1.433611139224698        0.3702444188948463    
     1.438694866668757        0.3648124150232446    
     1.443778594112816        0.3594520353744748    
     1.448862321556875        0.3541626098081565    
     1.453946049000934        0.3489434468984473    
     1.459029776444994        0.3437938381285144    
     1.464113503889053        0.3387130623395633    
     1.469197231333112        0.3337003903895497    
     1.474280958777171        0.3287550895413974    
     1.479364686221230        0.3238764273841021    
     1.484448413665290        0.3190636746316728    
     1.489532141109349        0.3143161050993150    
     1.494615868553408        0.3096329953083987    
     1.499699595997467        0.3050136234556369    
     1.504783323441526        0.3004572694625263    
     1.509867050885586        0.2959632155392389    
     1.514950778329645        0.2915307465713585    
     1.520034505773704        0.2871591505301982    
     1.525118233217763        0.2828477185619905    
     1.530201960661822        0.2785957451519241    
     1.535285688105882        0.2744025283019501    
     1.540369415549941        0.2702673697006599    
     1.545453142994000        0.2661895748849646    
     1.550536870438059        0.2621684533918809    
     1.555620597882118        0.2582033189015673    
     1.560704325326178        0.2542934893719652    
     1.565788052770237        0.2504382871653488    
     1.570871780214296        0.2466370391670829    
     1.575955507658355        0.2428890768968798    
     1.581039235102415        0.2391937366128239    
     1.586122962546474        0.2355503594084576    
     1.591206689990533        0.2319582913031772    
     1.596290417434592        0.2284168833261958    
     1.601374144878651        0.2249254915943238    
     1.606457872322711        0.2214834773837926    
     1.611541599766770        0.2180902071963703    
     1.616625327210829        0.2147450528200872    
     1.621709054654888        0.2114473913588589    
     1.626792782098947        0.2081966050679968    
     1.631876509543007        0.2049920817509179    
     1.636960236987066        0.2018332147381547    
     1.642043964431125        0.1987194028802575    
     1.647127691875184        0.1956500505794622    
     1.652211419319244        0.1926245678173204    
     1.657295146763303        0.1896423701783838    
     1.662378874207362        0.1867028788701119    
     1.667462601651421        0.1838055207391648    
     1.672546329095481        0.1809497282842250    
     1.677630056539540        0.1781349396655110    
     1.682713783983599        0.1753605987111145    
     1.687797511427658        0.1726261549203094    
     1.692881238871717        0.1699310634639582    
     1.697964966315777        0.1672747851821516    
     1.703048693759836        0.1646567865792082    
     1.708132421203895        0.1620765398161431    
     1.713216148647954        0.1595335227007382    
     1.718299876092013        0.1570272186753131    
     1.723383603536073        0.1545571168023157    
     1.728467330980132        0.1521227117478268    
     1.733551058424191        0.1497235037630892    
     1.738634785868250        0.1473589986641509    
     1.743718513312309        0.1450287078097253    
     1.748802240756369        0.1427321480773466    
     1.753885968200428        0.1404688418379202    
     1.758969695644487        0.1382383169287444    
     1.764053423088546        0.1360401066250858    
     1.769137150532605        0.1338737496103906    
     1.774220877976665        0.1317387899451991    
     1.779304605420724        0.1296347770348455    
     1.784388332864783        0.1275612655960037    
     1.789472060308842        0.1255178156221529    
     1.794555787752901        0.1235039923480234    
     1.799639515196961        0.1215193662130884    
     1.804723242641020        0.1195635128241570    
     1.809806970085079        0.1176360129171302    
     1.814890697529138        0.1157364523179761    
     1.819974424973198        0.1138644219029686    
     1.825058152417257        0.1120195175582532    
     1.830141879861316        0.1102013401387819    
     1.835225607305375        0.1084094954266629    
     1.840309334749434        0.1066435940889755    
     1.845393062193494        0.1049032516350916    
     1.850476789637553        0.1031880883735437    
     1.855560517081612        0.1014977293684817    
     1.860644244525671        0.9983180439575838E-01
     1.865727971969730        0.9818994789867554E-01
     1.870811699413790        0.9657179894343093E-01
     1.875895426857849        0.9497700117429823E-01
     1.880979154301908        0.9340520276857202E-01
     1.886062881745967        0.9185605639130902E-01
     1.891146609190026        0.9032921914989643E-01
     1.896230336634086        0.8882435254847443E-01
     1.901314064078145        0.8734112244224115E-01
     1.906397791522204        0.8587919899166628E-01
     1.911481518966263        0.8443825661663648E-01
     1.916565246410322        0.8301797395055900E-01
     1.921648973854382        0.8161803379444491E-01
     1.926732701298441        0.8023812307099236E-01
     1.931816428742500        0.7887793277869355E-01
     1.936900156186559        0.7753715794598248E-01
     1.941983883630619        0.7621549758544335E-01
     1.947067611074678        0.7491265464809783E-01
     1.952151338518737        0.7362833597778783E-01
     1.957235065962796        0.7236225226566906E-01
     1.962318793406855        0.7111411800483279E-01
     1.967402520850915        0.6988365144506910E-01
     1.972486248294974        0.6867057454778447E-01
     1.977569975739033        0.6747461294109026E-01
     1.982653703183092        0.6629549587507014E-01
     1.987737430627152        0.6513295617724101E-01
     1.992821158071211        0.6398673020822009E-01
     1.997904885515270        0.6285655781760202E-01
     2.002988612959329        0.6174218230006473E-01
     2.008072340403388        0.6064335035170811E-01
     2.013156067847448        0.5955981202663188E-01
     2.018239795291507        0.5849132069376872E-01
     2.023323522735566        0.5743763299397393E-01
     2.028407250179625        0.5639850879737927E-01
     2.033490977623684        0.5537371116102176E-01
     2.038574705067743        0.5436300628675021E-01
     2.043658432511803        0.5336616347941527E-01
     2.048742159955862        0.5238295510535158E-01
     2.053825887399921        0.5141315655115244E-01
     2.058909614843980        0.5045654618274612E-01
     2.063993342288040        0.4951290530477473E-01
     2.069077069732099        0.4858201812028148E-01
     2.074160797176158        0.4766367169070947E-01
     2.079244524620217        0.4675765589621358E-01
     2.084328252064276        0.4586376339629093E-01
     2.089411979508336        0.4498178959073168E-01
     2.094495706952395        0.4411153258088989E-01
     2.099579434396454        0.4325279313128104E-01
     2.104663161840513        0.4240537463150370E-01
     2.109746889284573        0.4156908305848946E-01
     2.114830616728632        0.4074372693908120E-01
     2.119914344172691        0.3992911731294035E-01
     2.124998071616750        0.3912506769578596E-01
     2.130081799060809        0.3833139404296247E-01
     2.135165526504869        0.3754791471334019E-01
     2.140249253948928        0.3677445043354739E-01
     2.145332981392987        0.3601082426253112E-01
     2.150416708837046        0.3525686155645197E-01
     2.155500436281105        0.3451238993390720E-01
     2.160584163725165        0.3377723924148470E-01
     2.165667891169224        0.3305124151964552E-01
     2.170751618613283        0.3233423096893516E-01
     2.175835346057342        0.3162604391652146E-01
     2.180919073501402        0.3092651878305839E-01
     2.186002800945461        0.3023549604987568E-01
     2.191086528389520        0.2955281822648924E-01
     2.196170255833579        0.2887832981843547E-01
     2.201253983277638        0.2821187729542390E-01
     2.206337710721697        0.2755330905980842E-01
     2.211421438165757        0.2690247541537497E-01
     2.216505165609816        0.2625922853644212E-01
     2.221588893053875        0.2562342243727599E-01
     2.226672620497935        0.2499491294181205E-01
     2.231756347941994        0.2437355765368717E-01
     2.236840075386053        0.2375921592657551E-01
     2.241923802830112        0.2315174883482723E-01
     2.247007530274171        0.2255101914440787E-01
     2.252091257718230        0.2195689128413525E-01
     2.257174985162290        0.2136923131721208E-01
     2.262258712606349        0.2078790691304997E-01
     2.267342440050408        0.2021278731938402E-01
     2.272426167494467        0.1964374333467398E-01
     2.277509894938527        0.1908064728078948E-01
     2.282593622382586        0.1852337297597605E-01
     2.287677349826645        0.1797179570809991E-01
     2.292761077270704        0.1742579220816773E-01
     2.297844804714763        0.1688524062418491E-01
     2.302928532158822        0.1635002050787077E-01
     2.308012259602882        0.1582001311886017E-01
     2.313095987046941        0.1529510381674215E-01
     2.318179714491000        0.1477518955975682E-01
     2.323263441935060        0.1426019188194580E-01
     2.328347169379119        0.1375007179409288E-01
     2.333430896823178        0.1324484229438884E-01
     2.338514624267237        0.1274457597344205E-01
     2.343598351711296        0.1224940725140193E-01
     2.348682079155355        0.1175953004270138E-01
     2.353765806599414        0.1127519211095999E-01
     2.358849534043474        0.1079668736542738E-01
     2.363933261487533        0.1032434713109079E-01
     2.369016988931592        0.9858531156281571E-02
     2.374100716375652        0.9399618877972134E-02
     2.379184443819711        0.8948001270751627E-02
     2.384268171263770        0.8504073462070365E-02
     2.389351898707829        0.8068228196139778E-02
     2.394435626151888        0.7640850162071262E-02
     2.399519353595947        0.7222311159493681E-02
     2.404603081040007        0.6812966049731211E-02
     2.409686808484066        0.6413149427175045E-02
     2.414770535928125        0.6023172939750010E-02
     2.419854263372184        0.5643323186552448E-02
     2.424937990816244        0.5273860122864242E-02
     2.430021718260303        0.4915015906499154E-02
     2.435105445704362        0.4566994123915413E-02
     2.440189173148421        0.4229969339093888E-02
     2.445272900592480        0.3904086912406365E-02
     2.450356628036540        0.3589463040200871E-02
     2.455440355480599        0.3286184968284473E-02
     2.460524082924658        0.2994311333431501E-02
     2.465607810368717        0.2713872585885495E-02
     2.470691537812777        0.2444871441537300E-02
     2.475775265256836        0.2187283303341874E-02
     2.480858992700895        0.1941056574528464E-02
     2.485942720144954        0.1706112755616340E-02
     2.491026447589014        0.1482346162218776E-02
     2.496110175033073        0.1269622998796882E-02
     2.501193902477132        0.1067779326482102E-02
     2.506277629921191        0.8766170574888842E-03
     2.511361357365250        0.6958962028464350E-03
     2.516445084809309        0.5253193467428957E-03
     2.521528812253369        0.3644978170943705E-03
     2.526612539697428        0.2128656952915490E-03
     2.531696267141487        0.6937962250287703E-04
     2.536779994585546         0.000000000000000    
  0  6  1  0  1.000000   #orbital l, n, z, is_polarized, population
 500    0.1291550555040204E-01     6.444837269650616     # npts, delta, cutoff
     0.000000000000000        0.6147849560251918    
    0.1291550555040204E-01    0.6150502673715266    