<preamble>

<basis_specs>
===============================================================================
Co                   Z=  27    Mass=  58.933        Charge= 0.17977+309
Lmxo=2 Lmxkb= 2    BasisType=split      Semic=T
L=0  Nsemic=1  Cnfigmx=4
          i=1  nzeta=1  polorb=0  (3s)  (semicore shell)
            splnorm:   0.15000    
               vcte:    40.000    
               rinn:    2.1626    
               qcoe:    0.0000    
               qyuk:    0.0000    
               qwid:   0.10000E-01
                rcs:    2.4029    
            lambdas:    1.0000    
          i=2  nzeta=2  polorb=0  (4s)  (to be polarized non-perturbatively)
            splnorm:   0.15000    
               vcte:    40.000    
               rinn:    6.0860    
               qcoe:    0.0000    
               qyuk:    0.0000    
               qwid:   0.10000E-01
                rcs:    6.7622      4.7719    
            lambdas:    1.0000      1.0000    
L=1  Nsemic=1  Cnfigmx=4
          i=1  nzeta=1  polorb=0  (3p)  (semicore shell)
            splnorm:   0.15000    
               vcte:    40.000    
               rinn:    2.4030    
               qcoe:    0.0000    
               qyuk:    0.0000    
               qwid:   0.10000E-01
                rcs:    2.6674    
            lambdas:    1.0000    
          i=2  nzeta=1  polorb=0  (4p)  (non-perturbative polarization shell)
            splnorm:   0.15000    
               vcte:    40.000    
               rinn:    6.0921    
               qcoe:    0.0000    
               qyuk:    0.0000    
               qwid:   0.10000E-01
                rcs:    6.7622    
            lambdas:    1.0000    
L=2  Nsemic=0  Cnfigmx=3
          i=1  nzeta=2  polorb=0  (3d)
            splnorm:   0.15000    
               vcte:    40.000    
               rinn:    3.8157    
               qcoe:    0.0000    
               qyuk:    0.0000    
               qwid:   0.10000E-01
                rcs:    4.2396      2.5266    
            lambdas:    1.0000      1.0000    
-------------------------------------------------------------------------------
L=0  Nkbl=2  erefs: 0.17977+309 0.17977+309
L=1  Nkbl=2  erefs: 0.17977+309 0.17977+309
L=2  Nkbl=1  erefs: 0.17977+309
===============================================================================
</basis_specs>

<pseudopotential_header>
 Co pw nrl pcec
 ONCVPSP-3.2020-12-01Hamann's oncvpsp                        
 3s 2.00  r= 1.26/3p 6.00  r= 1.32/3d 7.00  r= 1.66/                    3s:3p:3d:4s:
</pseudopotential_header>
</preamble>
Co                            # Symbol
Co                            # Label
   27                         # Atomic number
     17.0000000000                             # Valence charge
     58.9330000000        # Mass 
     373.997486711        # Self energy 
   2   7                      # Lmax for basis, no. of nl orbitals 
   2   6                      # Lmax for projectors, no. of nl KB projectors
# PAOs:__________________________
  0  3  1  0  2.000000   #orbital l, n, z, is_polarized, population
 500    0.4815433136406457E-02     2.402901135066822     # npts, delta, cutoff
     0.000000000000000         2.416191283477062    
    0.4815433136406457E-02     2.416112682197680    
    0.9630866272812915E-02     2.416081643660100    
    0.1444629940921937E-01     2.416029904613279    
    0.1926173254562583E-01     2.415957275225486    
    0.2407716568203229E-01     2.415863532626858    
    0.2889259881843875E-01     2.415748397453226    
    0.3370803195484520E-01     2.415611530769531    
    0.3852346509125166E-01     2.415452533600019    
    0.4333889822765812E-01     2.415270947090108    
    0.4815433136406457E-01     2.415066252904480    
    0.5296976450047103E-01     2.414837873753099    
    0.5778519763687749E-01     2.414585174008631    
    0.6260063077328394E-01     2.414307460400717    
    0.6741606390969040E-01     2.414003982780392    
    0.7223149704609685E-01     2.413673934951044    
    0.7704693018250332E-01     2.413316455563568    
    0.8186236331890978E-01     2.412930629074007    
    0.8667779645531623E-01     2.412515486762192    
    0.9149322959172269E-01     2.412070007809996    
    0.9630866272812914E-01     2.411593120437903    
    0.1011240958645356         2.411083703098470    
    0.1059395290009421         2.410540585725373    
    0.1107549621373485         2.409962551036545    
    0.1155703952737550         2.409348335889976    
    0.1203858284101614         2.408696632690641    
    0.1252012615465679         2.408006090846979    
    0.1300166946829744         2.407275318275317    
    0.1348321278193808         2.406502882950546    
    0.1396475609557873         2.405687314501348    
    0.1444629940921937         2.404827105848215    
    0.1492784272286002         2.403920714882416    
    0.1540938603650066         2.402966566184114    
    0.1589092935014131         2.401963052777697    
    0.1637247266378196         2.400908537922410    
    0.1685401597742260         2.399801356936337    
    0.1733555929106325         2.398639819051718    
    0.1781710260470389         2.397422209299556    
    0.1829864591834454         2.396146790421509    
    0.1878018923198518         2.394811804806932    
    0.1926173254562583         2.393415476452964    
    0.1974327585926648         2.391956012945593    
    0.2022481917290712         2.390431607459446    
    0.2070636248654777         2.388840440774259    
    0.2118790580018841         2.387180683305745    
    0.2166944911382906         2.385450497148749    
    0.2215099242746970         2.383648038130457    
    0.2263253574111035         2.381771457871454    
    0.2311407905475100         2.379818905852460    
    0.2359562236839164         2.377788531484502    
    0.2407716568203229         2.375678486180330    
    0.2455870899567293         2.373486925424909    
    0.2504025230931358         2.371212010842748    
    0.2552179562295422         2.368851912259917    
    0.2600333893659487         2.366404809758578    
    0.2648488225023551         2.363868895721881    
    0.2696642556387616         2.361242376867067    
    0.2744796887751681         2.358523476264696    
    0.2792951219115745         2.355710435341879    
    0.2841105550479810         2.352801515867456    
    0.2889259881843874         2.349795001917085    
    0.2937414213207939         2.346689201816205    
    0.2985568544572004         2.343482450058932    
    0.3033722875936068         2.340173109200900    
    0.3081877207300133         2.336759571724155    
    0.3130031538664197         2.333240261872240    
    0.3178185870028262         2.329613637453611    
    0.3226340201392326         2.325878191611619    
    0.3274494532756391         2.322032454559288    
    0.3322648864120455         2.318074995277217    
    0.3370803195484520         2.314004423172914    
    0.3418957526848584         2.309819389700008    
    0.3467111858212649         2.305518589935727    
    0.3515266189576714         2.301100764115203    
    0.3563420520940778         2.296564699121111    
    0.3611574852304843         2.291909229927276    
    0.3659729183668908         2.287133240994907    
    0.3707883515032972         2.282235667620200    
    0.3756037846397037         2.277215497232053    
    0.3804192177761102         2.272071770638794    
    0.3852346509125166         2.266803583222790    
    0.3900500840489231         2.261410086081921    
    0.3948655171853295         2.255890487116949    
    0.3996809503217360         2.250244052063884    
    0.4044963834581424         2.244470105470516    
    0.4093118165945488         2.238568031616319    
    0.4141272497309553         2.232537275375054    
    0.4189426828673618         2.226377343019400    
    0.4237581160037682         2.220087802967078    
    0.4285735491401747         2.213668286467928    
    0.4333889822765812         2.207118488231532    
    0.4382044154129876         2.200438166994994    
    0.4430198485493941         2.193627146030583    
    0.4478352816858006         2.186685313593027    
    0.4526507148222070         2.179612623306246    
    0.4574661479586135         2.172409094489467    
    0.4622815810950199         2.165074812422680    
    0.4670970142314264         2.157609928551447    
    0.4719124473678328         2.150014660631205    
    0.4767278805042393         2.142289292811185    
    0.4815433136406457         2.134434175658218    
    0.4863587467770522         2.126449726120691    
    0.4911741799134586         2.118336427433034    
    0.4959896130498651         2.110094828961154    
    0.5008050461862715         2.101725545989284    
    0.5056204793226781         2.093229259448807    
    0.5104359124590845         2.084606715589649    
    0.5152513455954909         2.075858725594907    
    0.5200667787318974         2.066986165139414    
    0.5248822118683039         2.057989973893035    
    0.5296976450047103         2.048871154969505    
    0.5345130781411168         2.039630774313585    
    0.5393285112775232         2.030270008679502    
    0.5441439444139297         2.020790019319649    
    0.5489593775503362         2.011192035073328    
    0.5537748106867426         2.001477366187014    
    0.5585902438231490         1.991647381952569    
    0.5634056769595555         1.981703509802344    
    0.5682211100959620         1.971647234358245    
    0.5730365432323684         1.961480096435942    
    0.5778519763687748         1.951203692005581    
    0.5826674095051814         1.940819671110238    
    0.5874828426415878         1.930329736743539    
    0.5922982757779942         1.919735643687785    
    0.5971137089144007         1.909039197314023    
    0.6019291420508072         1.898242252345486    
    0.6067445751872136         1.887346711585899    
    0.6115600083236201         1.876354524614117    
    0.6163754414600265         1.865267686446634    
    0.6211908745964330         1.854088236169487    
    0.6260063077328395         1.842818255541115    
    0.6308217408692459         1.831459867567739    
    0.6356371740056523         1.820015235052857    
    0.6404526071420589         1.808486559122438    
    0.6452680402784653         1.796876077727438    
    0.6500834734148717         1.785186064125227    
    0.6548989065512782         1.773418825341584    
    0.6597143396876847         1.761576700614848    
    0.6645297728240911         1.749662059823868    
    0.6693452059604976         1.737677301901383    
    0.6741606390969040         1.725624853234446    
    0.6789760722333105         1.713507166053506    
    0.6837915053697169         1.701326716811779    
    0.6886069385061234         1.689086004556501    
    0.6934223716425298         1.676787549293661    
    0.6982378047789363         1.664433890347801    
    0.7030532379153428         1.652027584718446    
    0.7078686710517492         1.639571205434736    
    0.7126841041881556         1.627067339909780    
    0.7174995373245622         1.614518588296265    
    0.7223149704609686         1.601927561844819    
    0.7271304035973750         1.589296881266598    
    0.7319458367337816         1.576629175101572    
    0.7367612698701880         1.563927078093907    
    0.7415767030065944         1.551193229575901    
    0.7463921361430009         1.538430271861785    
    0.7512075692794074         1.525640848652794    
    0.7560230024158138         1.512827603454806    
    0.7608384355522203         1.499993178009815    
    0.7656538686886267         1.487140210742538    
    0.7704693018250331         1.474271335223338    
    0.7752847349614397         1.461389178648661    
    0.7801001680978461         1.448496360340154    
    0.7849156012342525         1.435595490263561    
    0.7897310343706591         1.422689167568471    
    0.7945464675070655         1.409779979149988    
    0.7993619006434719         1.396870498233279    
    0.8041773337798783         1.383963282982004    
    0.8089927669162849         1.371060875131520    
    0.8138082000526913         1.358165798647761    
    0.8186236331890977         1.345280558412612    
    0.8234390663255042         1.332407638936601    
    0.8282544994619107         1.319549503099641    
    0.8330699325983171         1.306708590920564    
    0.8378853657347236         1.293887318356087    
    0.8427007988711300         1.281088076129878    
    0.8475162320075365         1.268313228592276    
    0.8523316651439430         1.255565112611235    
    0.8571470982803494         1.242846036494985    
    0.8619625314167558         1.230158278946869    
    0.8667779645531624         1.217504088052789    
    0.8715933976895688         1.204885680301619    
    0.8764088308259752         1.192305239638934    
    0.8812242639623817         1.179764916554348    
    0.8860396970987882         1.167266827202720    
    0.8908551302351946         1.154813052559416    
    0.8956705633716011         1.142405637609840    
    0.9004859965080075         1.130046590573339    
    0.9053014296444140         1.117737882161580    
    0.9101168627808205         1.105481444871478    
    0.9149322959172269         1.093279172312671    
    0.9197477290536333         1.081132918569533    
    0.9245631621900399         1.069044497597679    
    0.9293785953264463         1.057015682654871    
    0.9341940284628527         1.045048205766196    
    0.9390094615992591         1.033143757223380    
    0.9438248947356657         1.021303985118023    
    0.9486403278720721         1.009530494908571    
    0.9534557610084785        0.9978248490207379    
    0.9582711941448850        0.9861885664811314    
    0.9630866272812915        0.9746231225837665    
    0.9679020604176979        0.9631299485891182    
    0.9727174935541044        0.9517104314553766    
    0.9775329266905108        0.9403659136015026    
    0.9823483598269173        0.9290976927016821    
    0.9871637929633238        0.9179070215107507    
    0.9919792260997302        0.9067951077201286    
    0.9967946592361366        0.8957631138437981    
     1.001610092372543        0.8848121571338250    
     1.006425525508950        0.8739433095249225    
     1.011240958645356        0.8631575976075209    
     1.016056391781762        0.8524560026288062    
     1.020871824918169        0.8418394605211684    
     1.025687258054576        0.8313088619574891    
     1.030502691190982        0.8208650524326877    
     1.035318124327388        0.8105088323709186    
     1.040133557463795        0.8002409572578518    
     1.044948990600201        0.7900621377973793    
     1.049764423736608        0.7799730400921630    
     1.054579856873014        0.7699742858473811    
     1.059395290009421        0.7600664525970582    
     1.064210723145827        0.7502500739523245    
     1.069026156282234        0.7405256398709772    
     1.073841589418640        0.7308935969477282    
     1.078657022555046        0.7213543487244430    
     1.083472455691453        0.7119082560197919    
     1.088287888827859        0.7025556372776359    
     1.093103321964266        0.6932967689335275    
     1.097918755100672        0.6841318857986876    
     1.102734188237079        0.6750611814608372    
     1.107549621373485        0.6660848087012505    
     1.112365054509892        0.6572028799274187    
     1.117180487646298        0.6484154676207118    
     1.121995920782705        0.6397226047984248    
     1.126811353919111        0.6311242854896389    
     1.131626787055517        0.6226204652242693    
     1.136442220191924        0.6142110615347617    
     1.141257653328330        0.6058959544698490    
     1.146073086464737        0.5976749871198056    
     1.150888519601143        0.5895479661526786    
     1.155703952737550        0.5815146623609325    
     1.160519385873956        0.5735748112180040    
     1.165334819010363        0.5657281134442550    
     1.170150252146769        0.5579742355818155    
     1.174965685283176        0.5503128105778524    
     1.179781118419582        0.5427434383757750    
     1.184596551555988        0.5352656865139410    
     1.189411984692395        0.5278790907313959    
     1.194227417828801        0.5205831555802508    
     1.199042850965208        0.5133773550442520    
     1.203858284101614        0.5062611331631716    
     1.208673717238021        0.4992339046626127    
     1.213489150374427        0.4922950555888825    
     1.218304583510834        0.4854439439484562    
     1.223120016647240        0.4786799002828057    
     1.227935449783647        0.4720022282782541    
     1.232750882920053        0.4654102057251930    
     1.237566316056460        0.4589030854770518    
     1.242381749192866        0.4524800961369235    
     1.247197182329272        0.4461404411465620    
     1.252012615465679        0.4398832985841368    
     1.256828048602085        0.4337078221869632    
     1.261643481738492        0.4276131457926795    
     1.266458914874898        0.4215983886146057    
     1.271274348011305        0.4156626608927910    
     1.276089781147711        0.4098050696382012    
     1.280905214284118        0.4040247237623713    
     1.285720647420524        0.3983207383967139    
     1.290536080556931        0.3926922357432398    
     1.295351513693337        0.3871383443949289    
     1.300166946829743        0.3816581979704290    
     1.304982379966150        0.3762509348650137    
     1.309797813102556        0.3709156987921346    
     1.314613246238963        0.3656516391786971    
     1.319428679375369        0.3604579114407975    
     1.324244112511776        0.3553336769796792    
     1.329059545648182        0.3502781032824330    
     1.333874978784589        0.3452903640239832    
     1.338690411920995        0.3403696391653326    
     1.343505845057402        0.3355151150421057    
     1.348321278193808        0.3307259841441275    
     1.353136711330215        0.3260014454404654    
     1.357952144466621        0.3213407046590742    
     1.362767577603027        0.3167429742057771    
     1.367583010739434        0.3122074732207913    
     1.372398443875840        0.3077334276292525    
     1.377213877012247        0.3033200701862598    
     1.382029310148653        0.2989666405166546    
     1.386844743285060        0.2946723851497580    
     1.391660176421466        0.2904365575492908    
     1.396475609557873        0.2862584181386766    
     1.401291042694279        0.2821372343219389    
     1.406106475830686        0.2780722805003699    
     1.410921908967092        0.2740628380851763    
     1.415737342103498        0.2701081955062710    
     1.420552775239905        0.2662076482173849    
     1.425368208376311        0.2623604986976667    
     1.430183641512718        0.2585660564499334    
     1.434999074649124        0.2548236379957297    
     1.439814507785531        0.2511325668673323    
     1.444629940921937        0.2474921735968560    
     1.449445374058344        0.2439017957026001    
     1.454260807194750        0.2403607776727563    
     1.459076240331157        0.2368684709466203    
     1.463891673467563        0.2334242338934207    
     1.468707106603969        0.2300274317888890    
     1.473522539740376        0.2266774367896862    
     1.478337972876782        0.2233736279057927    
     1.483153406013189        0.2201153909709664    
     1.487968839149595        0.2169021186113769    
     1.492784272286002        0.2137332102125100    
     1.497599705422408        0.2106080718844358    
     1.502415138558815        0.2075261164255343    
     1.507230571695221        0.2044867632847606    
     1.512046004831628        0.2014894385225431    
     1.516861437968034        0.1985335747703840    
     1.521676871104441        0.1956186111892464    
     1.526492304240847        0.1927439934268045    
     1.531307737377253        0.1899091735736181    
     1.536123170513660        0.1871136101183137    
     1.540938603650066        0.1843567679018281    
     1.545754036786473        0.1816381180707823    
     1.550569469922879        0.1789571380300477    
     1.555384903059286        0.1763133113945562    
     1.560200336195692        0.1737061279404199    
     1.565015769332099        0.1711350835554077    
     1.569831202468505        0.1685996801888334    
     1.574646635604912        0.1660994258009023    
     1.579462068741318        0.1636338343115663    
     1.584277501877724        0.1612024255489313    
     1.589092935014131        0.1588047251972626    
     1.593908368150537        0.1564402647446267    
     1.598723801286944        0.1541085814302148    
     1.603539234423350        0.1518092181913791    
     1.608354667559757        0.1495417236104276    
     1.613170100696163        0.1473056518612048    
     1.617985533832570        0.1451005626554936    
     1.622800966968976        0.1429260211892753    
     1.627616400105383        0.1407815980888739    
     1.632431833241789        0.1386668693570139    
     1.637247266378195        0.1365814163188218    
     1.642062699514602        0.1345248255677971    
     1.646878132651008        0.1324966889117799    
     1.651693565787415        0.1304966033189375    
     1.656508998923821        0.1285241708637933    
     1.661324432060228        0.1265789986733226    
     1.666139865196634        0.1246606988731335    
     1.670955298333041        0.1227688885337512    
     1.675770731469447        0.1209031896170370    
     1.680586164605854        0.1190632289227440    
     1.685401597742260        0.1172486380352352    
     1.690217030878667        0.1154590532703794    
     1.695032464015073        0.1136941156226391    
     1.699847897151479        0.1119534707123666    
     1.704663330287886        0.1102367687333259    
     1.709478763424292        0.1085436644004485    
     1.714294196560699        0.1068738168978366    
     1.719109629697105        0.1052268898270248    
     1.723925062833512        0.1036025511555149    
     1.728740495969918        0.1020004731655923    
     1.733555929106325        0.1004203324034321    
     1.738371362242731        0.9886180962850849E-01
     1.743186795379138        0.9732458976331404E-01
     1.748002228515544        0.9580836184339479E-01
     1.752817661651950        0.9431281896771294E-01
     1.757633094788357        0.9283765824934402E-01
     1.762448527924763        0.9138258076650926E-01
     1.767263961061170        0.8994729151395880E-01
     1.772079394197576        0.8853149935470428E-01
     1.776894827333983        0.8713491697210854E-01
     1.781710260470389        0.8575726082233813E-01
     1.786525693606796        0.8439825108718331E-01
     1.791341126743202        0.8305761162724669E-01
     1.796156559879609        0.8173506993550890E-01
     1.800971993016015        0.8043035709127147E-01
     1.805787426152422        0.7914320771448057E-01
     1.810602859288828        0.7787335992043547E-01
     1.815418292425234        0.7662055527488397E-01
     1.820233725561641        0.7538453874950544E-01
     1.825049158698047        0.7416505867778536E-01
     1.829864591834454        0.7296186671128253E-01
     1.834680024970860        0.7177471777628881E-01
     1.839495458107267        0.7060337003088424E-01
     1.844310891243673        0.6944758482238902E-01
     1.849126324380080        0.6830712664520935E-01
     1.853941757516486        0.6718176309908201E-01
     1.858757190652893        0.6607126484771596E-01
     1.863572623789299        0.6497540557782898E-01
     1.868388056925705        0.6389396195858302E-01
     1.873203490062112        0.6282671360141660E-01
     1.878018923198518        0.6177344302026989E-01
     1.882834356334925        0.6073393559220854E-01
     1.887649789471331        0.5970797951844041E-01
     1.892465222607738        0.5869536578572527E-01
     1.897280655744144        0.5769588812817780E-01
     1.902096088880551        0.5670934298945983E-01
     1.906911522016957        0.5573552948536448E-01
     1.911726955153364        0.5477424936678613E-01
     1.916542388289770        0.5382530698307741E-01
     1.921357821426176        0.5288850924579156E-01
     1.926173254562583        0.5196366559280549E-01
     1.930988687698989        0.5105058795282556E-01
     1.935804120835396        0.5014909071027061E-01
     1.940619553971802        0.4925899067053118E-01
     1.945434987108209        0.4838010702560472E-01
     1.950250420244615        0.4751226132009995E-01
     1.955065853381022        0.4665527741761218E-01
     1.959881286517428        0.4580898146746647E-01
     1.964696719653835        0.4497320187182161E-01
     1.969512152790241        0.4414776925314008E-01
     1.974327585926648        0.4333251642201416E-01
     1.979143019063054        0.4252727834534924E-01
     1.983958452199460        0.4173189211490044E-01
     1.988773885335867        0.4094619691616034E-01
     1.993589318472273        0.4017003399759402E-01
     1.998404751608680        0.3940324664021886E-01
     2.003220184745086        0.3864568012752661E-01
     2.008035617881493        0.3789718171574469E-01
     2.012851051017899        0.3715760060443157E-01
     2.017666484154306        0.3642678790740730E-01
     2.022481917290712        0.3570459662401232E-01
     2.027297350427118        0.3499088161069260E-01
     2.032112783563525        0.3428549955290904E-01
     2.036928216699931        0.3358830893736688E-01
     2.041743649836338        0.3289917002456166E-01
     2.046559082972744        0.3221794482163963E-01
     2.051374516109151        0.3154449705556795E-01
     2.056189949245557        0.3087869214661435E-01
     2.061005382381964        0.3022039718212736E-01
     2.065820815518370        0.2956948089062135E-01
     2.070636248654777        0.2892581361615664E-01
     2.075451681791183        0.2828926729301468E-01
     2.080267114927590        0.2765971542066487E-01
     2.085082548063996        0.2703703303901797E-01
     2.089897981200402        0.2642109670396591E-01
     2.094713414336809        0.2581178446320063E-01
     2.099528847473215        0.2520897583231314E-01
     2.104344280609622        0.2461255177116575E-01
     2.109159713746029        0.2402239466053641E-01
     2.113975146882435        0.2343838827903117E-01
     2.118790580018841        0.2286041778026100E-01
     2.123606013155248        0.2228836967028189E-01
     2.128421446291654        0.2172213178529113E-01
     2.133236879428061        0.2116159326958075E-01
     2.138052312564467        0.2060664455374196E-01
     2.142867745700873        0.2005717733311837E-01
     2.147683178837280        0.1951308454650491E-01
     2.152498611973686        0.1897426035508897E-01
     2.157314045110093        0.1844060012163142E-01
     2.162129478246499        0.1791200038988217E-01
     2.166944911382906        0.1738835886422995E-01
     2.171760344519312        0.1686957438958035E-01
     2.176575777655719        0.1635554693152039E-01
     2.181391210792125        0.1584617756827147E-01
     2.186206643928532        0.1534136877413646E-01
     2.191022077064938        0.1484102662170106E-01
     2.195837510201345        0.1434506768289105E-01
     2.200652943337751        0.1385343098448307E-01
     2.205468376474157        0.1336609176249464E-01
     2.210283809610564        0.1288307304990376E-01
     2.215099242746970        0.1240445277525962E-01
     2.219914675883377        0.1193036593365535E-01
     2.224730109019783        0.1146100254940483E-01
     2.229545542156190        0.1099660258277600E-01
     2.234360975292596        0.1053744892649941E-01
     2.239176408429003        0.1008385943903197E-01
     2.243991841565409        0.9636178716793072E-02
     2.248807274701816        0.9194770084749143E-02
     2.253622707838222        0.8760008106758805E-02
     2.258438140974628        0.8332271785519299E-02
     2.263253574111035        0.7911938529851757E-02
     2.268069007247441        0.7499378905569348E-02
     2.272884440383848        0.7094952147091090E-02
     2.277699873520254        0.6699002383668387E-02
     2.282515306656661        0.6311855521548566E-02
     2.287330739793067        0.5933816717957916E-02
     2.292146172929474        0.5565168381863501E-02
     2.296961606065880        0.5206168638271066E-02
     2.301777039202287        0.4857050196124247E-02
     2.306592472338693        0.4518019563833094E-02
     2.311407905475099        0.4189256560520667E-02
     2.316223338611506        0.3870914074797754E-02
     2.321038771747912        0.3563118025941096E-02
     2.325854204884319        0.3265967484393457E-02
     2.330669638020725        0.2979534909142985E-02
     2.335485071157132        0.2703866458135039E-02
     2.340300504293538        0.2438982323483617E-02
     2.345115937429945        0.2184877034186171E-02
     2.349931370566351        0.1941519652383862E-02
     2.354746803702758        0.1708853759454378E-02
     2.359562236839164        0.1486797074820118E-02
     2.364377669975571        0.1275240451726947E-02
     2.369193103111977        0.1074045803664243E-02
     2.374008536248383        0.8830421231673252E-03
     2.378823969384790        0.7020178802261935E-03
     2.383639402521196        0.5307059135283711E-03
     2.388454835657603        0.3687506580673223E-03
     2.393270268794010        0.2156248683803117E-03
     2.398085701930416        0.7034008444232747E-04
     2.402901135066822         0.000000000000000    
  0  4  1  0  2.000000   #orbital l, n, z, is_polarized, population
 500    0.1355155480603638E-01     6.762225848212153     # npts, delta, cutoff
     0.000000000000000         1.086106694179837    
    0.1355155480603638E-01     1.085806611387638    
    0.2710310961207276E-01     1.084997931791556    