<preamble>

<basis_specs>
===============================================================================
Cr                   Z=  24    Mass=  51.996        Charge= 0.17977+309
Lmxo=2 Lmxkb= 2    BasisType=split      Semic=T
L=0  Nsemic=1  Cnfigmx=4
          i=1  nzeta=1  polorb=0  (3s)  (semicore shell)
            splnorm:   0.15000    
               vcte:    40.000    
               rinn:    2.4666    
               qcoe:    0.0000    
               qyuk:    0.0000    
               qwid:   0.10000E-01
                rcs:    2.7379    
            lambdas:    1.0000    
          i=2  nzeta=2  polorb=0  (4s)  (to be polarized non-perturbatively)
            splnorm:   0.15000    
               vcte:    40.000    
               rinn:    7.1507    
               qcoe:    0.0000    
               qyuk:    0.0000    
               qwid:   0.10000E-01
                rcs:    7.9373      5.7436    
            lambdas:    1.0000      1.0000    
L=1  Nsemic=1  Cnfigmx=4
          i=1  nzeta=1  polorb=0  (3p)  (semicore shell)
            splnorm:   0.15000    
               vcte:    40.000    
               rinn:    2.7766    
               qcoe:    0.0000    
               qyuk:    0.0000    
               qwid:   0.10000E-01
                rcs:    3.0820    
            lambdas:    1.0000    
          i=2  nzeta=1  polorb=0  (4p)  (non-perturbative polarization shell)
            splnorm:   0.15000    
               vcte:    40.000    
               rinn:    7.1507    
               qcoe:    0.0000    
               qyuk:    0.0000    
               qwid:   0.10000E-01
                rcs:    7.9373    
            lambdas:    1.0000    
L=2  Nsemic=0  Cnfigmx=3
          i=1  nzeta=2  polorb=0  (3d)
            splnorm:   0.15000    
               vcte:    40.000    
               rinn:    5.1229    
               qcoe:    0.0000    
               qyuk:    0.0000    
               qwid:   0.10000E-01
                rcs:    5.6921      3.5467    
            lambdas:    1.0000      1.0000    
-------------------------------------------------------------------------------
L=0  Nkbl=2  erefs: 0.17977+309 0.17977+309
L=1  Nkbl=2  erefs: 0.17977+309 0.17977+309
L=2  Nkbl=1  erefs: 0.17977+309
===============================================================================
</basis_specs>

<pseudopotential_header>
 Cr pw nrl pcec
 ONCVPSP-3.2018-03-09Hamann's oncvpsp                        
 3s 2.00  r= 1.31/3p 6.00  r= 1.31/3d 5.00  r= 1.72/                    3s:3p:3d:4s:
</pseudopotential_header>
</preamble>
Cr                            # Symbol
Cr                            # Label
   24                         # Atomic number
     14.0000000000                             # Valence charge
     51.9960000000        # Mass 
     239.626005619        # Self energy 
   2   7                      # Lmax for basis, no. of nl orbitals 
   2   6                      # Lmax for projectors, no. of nl KB projectors
# PAOs:__________________________
  0  3  1  0  2.000000   #orbital l, n, z, is_polarized, population
 500    0.5486734065671936E-02     2.737880298770296     # npts, delta, cutoff
     0.000000000000000         1.497783846796229    
    0.5486734065671936E-02     1.497811100266879    
    0.1097346813134387E-01     1.497997368913471    
    0.1646020219701581E-01     1.498307624828692    
    0.2194693626268774E-01     1.498741501031665    
    0.2743367032835968E-01     1.499298503269226    
    0.3292040439403161E-01     1.499977999797853    
    0.3840713845970355E-01     1.500779220383997    
    0.4389387252537549E-01     1.501701256557346    
    0.4938060659104742E-01     1.502743062231844    
    0.5486734065671936E-01     1.503903454517336    
    0.6035407472239129E-01     1.505181114673444    
    0.6584080878806323E-01     1.506574589189467    
    0.7132754285373516E-01     1.508082290983945    
    0.7681427691940711E-01     1.509702500721034    
    0.8230101098507904E-01     1.511433368242187    
    0.8778774505075097E-01     1.513272914112258    
    0.9327447911642291E-01     1.515219031279364    
    0.9876121318209484E-01     1.517269486847886    
    0.1042479472477668         1.519421923964097    
    0.1097346813134387         1.521673863813770    
    0.1152214153791107         1.524022707731148    
    0.1207081494447826         1.526465739418549    
    0.1261948835104545         1.529000127275810    
    0.1316816175761265         1.531622926838687    
    0.1371683516417984         1.534331083325198    
    0.1426550857074703         1.537121434288838    
    0.1481418197731423         1.539990712377437    
    0.1536285538388142         1.542935548196326    
    0.1591152879044861         1.545952473274349    
    0.1646020219701581         1.549037923131112    
    0.1700887560358300         1.552188240443749    
    0.1755754901015019         1.555399678311281    
    0.1810622241671739         1.558668403614567    
    0.1865489582328458         1.561990500469599    
    0.1920356922985177         1.565361973771847    
    0.1975224263641897         1.568778752829075    
    0.2030091604298616         1.572236695079959    
    0.2084958944955336         1.575731589895649    
    0.2139826285612055         1.579259162461237    
    0.2194693626268774         1.582815077733917    
    0.2249560966925494         1.586394944474460    
    0.2304428307582213         1.589994319348450    
    0.2359295648238932         1.593608711093530    
    0.2414162988895652         1.597233584748773    
    0.2469030329552371         1.600864365942087    
    0.2523897670209090         1.604496445231417    
    0.2578765010865810         1.608125182495324    
    0.2633632351522529         1.611745911368365    
    0.2688499692179249         1.615353943716568    
    0.2743367032835968         1.618944574148087    
    0.2798234373492687         1.622513084554043    
    0.2853101714149406         1.626054748674377    
    0.2907969054806126         1.629564836683416    
    0.2962836395462846         1.633038619789754    
    0.3017703736119565         1.636471374844917    
    0.3072571076776284         1.639858388955178    
    0.3127438417433003         1.643194964090804    
    0.3182305758089723         1.646476421686955    
    0.3237173098746442         1.649698107230317    
    0.3292040439403162         1.652855394825592    
    0.3346907780059881         1.655943691735831    
    0.3401775120716600         1.658958442890622    
    0.3456642461373319         1.661895135356090    
    0.3511509802030039         1.664749302760697    
    0.3566377142686759         1.667516529670786    
    0.3621244483343478         1.670192455909892    
    0.3676111824000197         1.672772780815827    
    0.3730979164656916         1.675253267429645    
    0.3785846505313636         1.677629746610608    
    0.3840713845970355         1.679898121071394    
    0.3895581186627075         1.682054369327861    
    0.3950448527283794         1.684094549557809    
    0.4005315867940513         1.686014803363257    
    0.4060183208597232         1.687811359430948    
    0.4115050549253952         1.689480537085933    
    0.4169917889910671         1.691018749733183    
    0.4224785230567391         1.692422508182463    
    0.4279652571224110         1.693688423851802    
    0.4334519911880829         1.694813211845149    
    0.4389387252537549         1.695793693899982    
    0.4444254593194268         1.696626801200900    
    0.4499121933850987         1.697309577055419    
    0.4553989274507707         1.697839179428505    
    0.4608856615164426         1.698212883332541    
    0.4663723955821145         1.698428083069795    
    0.4718591296477865         1.698482294324620    
    0.4773458637134584         1.698373156103002    
    0.4828325977791303         1.698098432517268    
    0.4883193318448023         1.697656014414117    
    0.4938060659104742         1.697043920844405    
    0.4992927999761462         1.696260300373412    
    0.5047795340418181         1.695303432230662    
    0.5102662681074900         1.694171727298595    
    0.5157530021731620         1.692863728939781    
    0.5212397362388339         1.691378113662613    
    0.5267264703045058         1.689713691625739    
    0.5322132043701778         1.687869406981809    
    0.5376999384358497         1.685844338061385    
    0.5431866725015216         1.683637697398198    
    0.5486734065671935         1.681248831597173    
    0.5541601406328656         1.678677221047005    
    0.5596468746985375         1.675922479479282    
    0.5651336087642094         1.672984353376443    
    0.5706203428298813         1.669862721231181    
    0.5761070768955533         1.666557592660050    
    0.5815938109612252         1.663069107374398    
    0.5870805450268971         1.659397534011916    
    0.5925672790925691         1.655543268832320    
    0.5980540131582410         1.651506834280967    
    0.6035407472239129         1.647288877424310    
    0.6090274812895848         1.642890168261385    
    0.6145142153552569         1.638311597915632    
    0.6200009494209288         1.633554176711572    
    0.6254876834866007         1.628619032140956    
    0.6309744175522726         1.623507406723212    
    0.6364611516179446         1.618220655765069    
    0.6419478856836165         1.612760245024397    
    0.6474346197492884         1.607127748283377    
    0.6529213538149604         1.601324844836189    
    0.6584080878806323         1.595353316896491    
    0.6638948219463042         1.589215046929988    
    0.6693815560119761         1.582912014917443    
    0.6748682900776481         1.576446296581108    
    0.6803550241433201         1.569820070309081    
    0.6858417582089920         1.563035578412431    
    0.6913284922746639         1.556095162449352    
    0.6968152263403359         1.549001246865146    
    0.7023019604060078         1.541756336037647    
    0.7077886944716797         1.534363011202963    
    0.7132754285373517         1.526823927353981    
    0.7187621626030236         1.519141810116679    
    0.7242488966686955         1.511319452609151    
    0.7297356307343674         1.503359712288184    
    0.7352223648000394         1.495265507788095    
    0.7407090988657113         1.487039815756371    
    0.7461958329313833         1.478685667690577    
    0.7516825669970552         1.470206146780799    
    0.7571693010627272         1.461604384761756    
    0.7626560351283991         1.452883558778537    
    0.7681427691940710         1.444046888269793    
    0.7736295032597430         1.435097631871969    
    0.7791162373254149         1.426039084348056    
    0.7846029713910868         1.416874573544106    
    0.7900897054567587         1.407607457376604    
    0.7955764395224307         1.398241120853576    
    0.8010631735881026         1.388778973132151    
    0.8065499076537745         1.379224444615064    
    0.8120366417194465         1.369580984088452    
    0.8175233757851185         1.359852055903051    
    0.8230101098507904         1.350041137200747    
    0.8284968439164623         1.340151715188246    
    0.8339835779821343         1.330187284459423    
    0.8394703120478062         1.320151344367760    
    0.8449570461134781         1.310047396450081    
    0.8504437801791500         1.299878941902643    
    0.8559305142448220         1.289649479110450    
    0.8614172483104939         1.279362501230536    
    0.8669039823761658         1.269021493829755    
    0.8723907164418377         1.258629932577533    
    0.8778774505075098         1.248191280993834    
    0.8833641845731817         1.237708988252508    
    0.8888509186388536         1.227186487040030    
    0.8943376527045256         1.216627191469557    
    0.8998243867701975         1.206034495050070    
    0.9053111208358694         1.195411768710340    
    0.9107978549015413         1.184762358877280    
    0.9162845889672133         1.174089585608249    
    0.9217713230328852         1.163396740776730    
    0.9272580570985571         1.152687086310776    
    0.9327447911642290         1.141963852483557    
    0.9382315252299011         1.131230236255291    
    0.9437182592955730         1.120489399665787    
    0.9492049933612449         1.109744468276838    
    0.9546917274269169         1.098998529663628    
    0.9601784614925888         1.088254631954346    
    0.9656651955582607         1.077515782417175    
    0.9711519296239326         1.066784946093824    
    0.9766386636896046         1.056065044478786    
    0.9821253977552765         1.045358954243514    
    0.9876121318209484         1.034669506004729    
    0.9930988658866203         1.023999483136124    
    0.9985855999522923         1.013351620622704    
     1.004072334017964         1.002728603957116    
     1.009559068083636        0.9921330680773098    
     1.015045802149308        0.9815675963449265    
     1.020532536214980        0.9710347195638901    
     1.026019270280652        0.9605369150386993    
     1.031506004346324        0.9500766056719887    
     1.036992738411996        0.9396561591009780    
     1.042479472477668        0.9292778868725096    
     1.047966206543340        0.9189440436563958    
     1.053452940609012        0.9086568264969017    
     1.058939674674684        0.8984183741022257    
     1.064426408740356        0.8882307661719010    
     1.069913142806028        0.8780960227621035    
     1.075399876871699        0.8680161036889311    
     1.080886610937371        0.8579929079697354    
     1.086373345003043        0.8480282733026691    
     1.091860079068715        0.8381239755846650    
     1.097346813134387        0.8282817284680913    
     1.102833547200059        0.8185031829563840    
     1.108320281265731        0.8087899270390015    
     1.113807015331403        0.7991434853660686    
     1.119293749397075        0.7895653189631244    
     1.124780483462747        0.7800568249864041    
     1.130267217528419        0.7706193365191047    
     1.135753951594091        0.7612541224091124    
     1.141240685659763        0.7519623871486688    
     1.146727419725435        0.7427452707964605    
     1.152214153791107        0.7336038489426269    
     1.157700887856778        0.7245391327171571    
     1.163187621922450        0.7155520688421397    
     1.168674355988122        0.7066435397283346    
     1.174161090053794        0.6978143636164664    
     1.179647824119466        0.6890652947636671    
     1.185134558185138        0.6803970236754013    
     1.190621292250810        0.6718101773832205    
     1.196108026316482        0.6633053197686084    
     1.201594760382154        0.6548829519331600    
     1.207081494447826        0.6465435126152486    
     1.212568228513498        0.6382873786533110    
     1.218054962579170        0.6301148654957964    
     1.223541696644842        0.6220262277577523    
     1.229028430710514        0.6140216598239696    
     1.234515164776186        0.6061012964985184    
     1.240001898841858        0.5982652137004324    
     1.245488632907529        0.5905134292052189    
     1.250975366973201        0.5828459034318022    
     1.256462101038873        0.5752625402744007    
     1.261948835104545        0.5677631879761099    
     1.267435569170217        0.5603476399220345    
     1.272922303235889        0.5530156356832743    
     1.278409037301561        0.5457668624694474    
     1.283895771367233        0.5386009567331288    
     1.289382505432905        0.5315175038893899    
     1.294869239498577        0.5245160374547198    
     1.300355973564249        0.5175960399588837    
     1.305842707629921        0.5107569489809038    
     1.311329441695593        0.5039981657894380    
     1.316816175761265        0.4973190647176436    
     1.322302909826937        0.4907190028390385    
     1.327789643892608        0.4841973286861556    
     1.333276377958280        0.4777533882324891    
     1.338763112023952        0.4713865250667383    
     1.344249846089624        0.4650960788605080    
     1.349736580155296        0.4588813840009100    
     1.355223314220968        0.4527417706185579    
     1.360710048286640        0.4466765655008075    
     1.366196782352312        0.4406850928365764    
     1.371683516417984        0.4347666744626470    
     1.377170250483656        0.4289206302234770    
     1.382656984549328        0.4231462777623671    
     1.388143718615000        0.4174429335920486    
     1.393630452680672        0.4118099135744229    
     1.399117186746344        0.4062465330770729    
     1.404603920812016        0.4007521072972140    
     1.410090654877687        0.3953259515717794    
     1.415577388943359        0.3899673816734083    
     1.421064123009031        0.3846757140928685    
     1.426550857074703        0.3794502663083680    
     1.432037591140375        0.3742903570422635    
     1.437524325206047        0.3691953065055895    
     1.443011059271719        0.3641644366308658    
     1.448497793337391        0.3591970712936171    
     1.453984527403063        0.3542925365229880    
     1.459471261468735        0.3494501607018913    
     1.464957995534407        0.3446692747570377    
     1.470444729600079        0.3399492123392494    
     1.475931463665751        0.3352893099943913    
     1.481418197731423        0.3306889073252923    
     1.486904931797095        0.3261473471449757    
     1.492391665862767        0.3216639756215249    
     1.497878399928438        0.3172381424149123    
     1.503365133994110        0.3128692008060788    
     1.508851868059782        0.3085565078185579    
     1.514338602125454        0.3042994243329479    
     1.519825336191126        0.3000973151944722    
     1.525312070256798        0.2959495493139213    
     1.530798804322470        0.2918554997622197    
     1.536285538388142        0.2878145438588582    
     1.541772272453814        0.2838260632544415    
     1.547259006519486        0.2798894440075756    
     1.552745740585158        0.2760040766563125    
     1.558232474650830        0.2721693562843719    
     1.563719208716502        0.2683846825823519    
     1.569205942782174        0.2646494599041092    
     1.574692676847846        0.2609630973185252    
     1.580179410913517        0.2573250086568305    
     1.585666144979190        0.2537346125556663    
     1.591152879044861        0.2501913324960626    
     1.596639613110533        0.2466945968384975    
     1.602126347176205        0.2432438388542017    
     1.607613081241877        0.2398384967528535    
     1.613099815307549        0.2364780137068313    
     1.618586549373221        0.2331618378721553    
     1.624073283438893        0.2298894224062635    
     1.629560017504565        0.2266602254827556    
     1.635046751570237        0.2234737103032364    
     1.640533485635909        0.2203293451063857    
     1.646020219701581        0.2172266031743669    
     1.651506953767253        0.2141649628367039    
     1.656993687832925        0.2111439074717303    
     1.662480421898596        0.2081629255057210    
     1.667967155964269        0.2052215104098131    
     1.673453890029940        0.2023191606948129    
     1.678940624095612        0.1994553799039911    
     1.684427358161284        0.1966296766039562    
     1.689914092226956        0.1938415643736993    
     1.695400826292628        0.1910905617918915    
     1.700887560358300        0.1883761924225269    
     1.706374294423972        0.1856979847989838    
     1.711861028489644        0.1830554724065880    
     1.717347762555316        0.1804481936637470    
     1.722834496620988        0.1778756919017314    
     1.728321230686660        0.1753375153431723    
     1.733807964752332        0.1728332170793430    
     1.739294698818004        0.1703623550462863    
     1.744781432883675        0.1679244919998520    
     1.750268166949348        0.1655191954896990    
     1.755754901015020        0.1631460378323277    
     1.761241635080691        0.1608045960831918    
     1.766728369146363        0.1584944520079462    
     1.772215103212035        0.1562151920528833    
     1.777701837277707        0.1539664073145979    
     1.783188571343379        0.1517476935089393    
     1.788675305409051        0.1495586509392892    
     1.794162039474723        0.1473988844642124    
     1.799648773540395        0.1452680034645197    
     1.805135507606067        0.1431656218097864    
     1.810622241671739        0.1410913578243607    
     1.816108975737411        0.1390448342529075    
     1.821595709803083        0.1370256782255110    
     1.827082443868755        0.1350335212223833    
     1.832569177934427        0.1330679990382036    
     1.838055912000099        0.1311287517461223    
     1.843542646065770        0.1292154236614623    
     1.849029380131442        0.1273276633051412    
     1.854516114197114        0.1254651233668486    
     1.860002848262786        0.1236274606680030    
     1.865489582328458        0.1218143361245103    
     1.870976316394130        0.1200254147093553    
     1.876463050459802        0.1182603654150445    
     1.881949784525474        0.1165188612159245    
     1.887436518591146        0.1148005790303968    
     1.892923252656818        0.1131051996830525    
     1.898409986722490        0.1114324078667467    
     1.903896720788162        0.1097818921046231    
     1.909383454853834        0.1081533447121146    
     1.914870188919506        0.1065464617589401    
     1.920356922985178        0.1049609430311065    
     1.925843657050849        0.1033964919929413    
     1.931330391116521        0.1018528157491575    
     1.936817125182193        0.1003296250069726    
     1.942303859247865        0.9882663403829769E-01
     1.947790593313537        0.9734356064200486E-01
     1.953277327379209        0.9588012610628906E-01
     1.958764061444881        0.9443605517113293E-01
     1.964250795510553        0.9301107599088869E-01
     1.969737529576225        0.9160492009698662E-01
     1.975224263641897        0.9021732236077867E-01
     1.980710997707569        0.8884802095652990E-01
     1.986197731773241        0.8749675732456377E-01
     1.991684465838913        0.8616327613457397E-01
     1.997171199904585        0.8484732524910470E-01
     2.002657933970256        0.8354865568721385E-01
     2.008144668035929        0.8226702158832287E-01
     2.013631402101601        0.8100218017625882E-01
     2.019118136167272        0.7975389172349945E-01
     2.024604870232944        0.7852191951562380E-01
     2.030091604298616        0.7730602981597474E-01
     2.035578338364288        0.7610599183053939E-01
     2.041065072429960        0.7492157767305552E-01
     2.046551806495632        0.7375256233033910E-01
     2.052038540561304        0.7259872362784980E-01
     2.057525274626976        0.7145984219549106E-01
     2.063012008692648        0.7033570143364672E-01
     2.068498742758320        0.6922608747946524E-01
     2.073985476823992        0.6813078917338958E-01
     2.079472210889663        0.6704959802593449E-01
     2.084958944955336        0.6598230818471836E-01
     2.090445679021008        0.6492871640175060E-01
     2.095932413086679        0.6388862200097330E-01
     2.101419147152352        0.6286182684606431E-01
     2.106905881218023        0.6184813530850292E-01
     2.112392615283695        0.6084735423589319E-01
     2.117879349349367        0.5985929292055737E-01
     2.123366083415039        0.5888376306839071E-01
     2.128852817480711        0.5792057876798472E-01
     2.134339551546383        0.5696955646001742E-01
     2.139826285612055        0.5603051490691160E-01
     2.145313019677727        0.5510327516276221E-01
     2.150799753743399        0.5418766054353296E-01
     2.156286487809071        0.5328349659752253E-01
     2.161773221874743        0.5239061107610010E-01
     2.167259955940415        0.5150883390471092E-01
     2.172746690006087        0.5063799715415192E-01
     2.178233424071759        0.4977793501211585E-01
     2.183720158137430        0.4892848375500511E-01
     2.189206892203102        0.4808948172001416E-01
     2.194693626268774        0.4726076927748005E-01
     2.200180360334446        0.4644218880349948E-01
     2.205667094400118        0.4563358465281464E-01
     2.211153828465790        0.4483480313196202E-01
     2.216640562531462        0.4404569247268825E-01
     2.222127296597134        0.4326610280563011E-01
     2.227614030662806        0.4249588613425440E-01
     2.233100764728478        0.4173489630906312E-01
     2.238587498794150        0.4098298900205691E-01
     2.244074232859822        0.4024002168145739E-01
     2.249560966925494        0.3950585358668846E-01
     2.255047700991166        0.3878034570361297E-01
     2.260534435056837        0.3806336074002438E-01
     2.266021169122510        0.3735476310139146E-01
     2.271507903188181        0.3665441886685501E-01
     2.276994637253853        0.3596219576547453E-01
     2.282481371319525        0.3527796315272240E-01
     2.287968105385197        0.3460159198722530E-01
     2.293454839450869        0.3393295480775107E-01
     2.298941573516541        0.3327192571043663E-01
     2.304428307582213        0.3261838032625838E-01
     2.309915041647885        0.3197219579874179E-01
     2.315401775713557        0.3133325076190752E-01
     2.320888509779229        0.3070142531845342E-01
     2.326375243844901        0.3007660101816912E-01
     2.331861977910573        0.2945866083658406E-01
     2.337348711976245        0.2884748915384128E-01
     2.342835446041917        0.2824297173380182E-01
     2.348322180107588        0.2764499570337256E-01
     2.353808914173261        0.2705344953205728E-01
     2.359295648238932        0.2646822301172942E-01
     2.364782382304604        0.2588920723662230E-01
     2.370269116370276        0.2531629458353820E-01
     2.375755850435948        0.2474937869226924E-01
     2.381242584501620        0.2418835444623314E-01
     2.386729318567292        0.2363311795331811E-01
     2.392216052632964        0.2308356652693534E-01
     2.397702786698636        0.2253959866727846E-01
     2.403189520764308        0.2200111404278512E-01
     2.408676254829980        0.2146801347180213E-01
     2.414162988895652        0.2094019890444724E-01
     2.419649722961324        0.2041757340467006E-01
     2.425136457026996        0.1990004113250719E-01
     2.430623191092668        0.1938750732652903E-01
     2.436109925158339        0.1887987828647849E-01
     2.441596659224011        0.1837706135609597E-01
     2.447083393289683        0.1787896490613269E-01
     2.452570127355355        0.1738549831754468E-01
     2.458056861421027        0.1689657196487176E-01
     2.463543595486699        0.1641209719979249E-01
     2.469030329552371        0.1593198633485857E-01
     2.474517063618043        0.1545615262740292E-01
     2.480003797683715        0.1498451026362099E-01
     2.485490531749387        0.1451697434431637E-01
     2.490977265815059        0.1405346095479817E-01
     2.496463999880731        0.1359388819292026E-01
     2.501950733946403        0.1313818075848687E-01
     2.507437468012075        0.1268628005685013E-01
     2.512924202077746        0.1223815794282038E-01
     2.518410936143419        0.1179382994570570E-01
     2.523897670209090        0.1135336469007259E-01
     2.529384404274762        0.1091688825503839E-01
     2.534871138340435        0.1048458378028542E-01
     2.540357872406106        0.1005668737792308E-01
     2.545844606471778        0.9633481570219985E-02
     2.551331340537450        0.9215287334056363E-02
     2.556818074603122        0.8802455590305420E-02
     2.562304808668794        0.8395358731941454E-02
     2.567791542734466        0.7994382579410694E-02
     2.573278276800138        0.7599918995083464E-02
     2.578765010865810        0.7212359276178931E-02
     2.584251744931482        0.6832088368742087E-02
     2.589738478997154        0.6459479895181685E-02
     2.595225213062826        0.6094891956952076E-02
     2.600711947128497        0.5738663656325134E-02
     2.606198681194170        0.5391112272456254E-02
     2.611685415259842        0.5052531024019531E-02
     2.617172149325513        0.4723187351355966E-02
     2.622658883391185        0.4403321653871220E-02
     2.628145617456857        0.4093146422293560E-02
     2.633632351522529        0.3792845709671339E-02
     2.639119085588201        0.3502574889159255E-02
     2.644605819653873        0.3222460650351700E-02
     2.650092553719545        0.2952601188848679E-02
     2.655579287785217        0.2693066545545712E-02
     2.661066021850889        0.2443899052355684E-02
     2.666552755916561        0.2205113839013485E-02
     2.672039489982233        0.1976699350100303E-02
     2.677526224047905        0.1758617810437786E-02
     2.683012958113577        0.1550805556845133E-02
     2.688499692179248        0.1353173117941267E-02
     2.693986426244920        0.1165604857341491E-02
     2.699473160310593        0.9879578700720108E-03
     2.704959894376264        0.8200595716735175E-03
     2.710446628441936        0.6617028835077274E-03
     2.715933362507608        0.5126366581297910E-03
     2.721420096573280        0.3725456314771221E-03
     2.726906830638952        0.2410034932873286E-03
     2.732393564704624        0.1173375139805738E-03
     2.737880298770296         0.000000000000000    
  0  4  1  0  1.000000   #orbital l, n, z, is_polarized, population
 500    0.1590637405548837E-01     7.937280653688696     # npts, delta, cutoff
     0.000000000000000        0.5679968392766025    
    0.1590637405548837E-01    0.5680598712714225    
    0.3181274811097674E-01    0.5682865904786734    