<preamble>

<basis_specs>
===============================================================================
H                    Z=   1    Mass=  1.0080        Charge= 0.17977+309
Lmxo=1 Lmxkb= 1    BasisType=split      Semic=F
L=0  Nsemic=0  Cnfigmx=1
          i=1  nzeta=2  polorb=1  (1s)  (to be polarized perturbatively)
            splnorm:   0.15000    
               vcte:    40.000    
               rinn:    5.1383    
               qcoe:    0.0000    
               qyuk:    0.0000    
               qwid:   0.10000E-01
                rcs:    5.7035      3.7403    
            lambdas:    1.0000      1.0000    
L=1  Nsemic=0  Cnfigmx=2
          i=1  nzeta=0  polorb=0  (2p)  (perturbative polarization orbital) (from 1s)
-------------------------------------------------------------------------------
L=0  Nkbl=1  erefs: 0.17977+309
L=1  Nkbl=1  erefs: 0.17977+309
===============================================================================
</basis_specs>

<pseudopotential_header>
 H  pw nrl nc  
 ONCVPSP-3.2018-03-09Hamann's oncvpsp                        
 1s 1.00  r= 1.01/2p 0.00  r= 0.91/                                     1s:
</pseudopotential_header>
</preamble>
H                             # Symbol
H                             # Label
    1                         # Atomic number
     1.00000000000                             # Valence charge
     1.00800000000        # Mass 
     2.29854807071        # Self energy 
   1   3                      # Lmax for basis, no. of nl orbitals 
   1   3                      # Lmax for projectors, no. of nl KB projectors
# PAOs:__________________________
  0  1  1  0  1.000000   #orbital l, n, z, is_polarized, population
 500    0.1142983703042324E-01     5.703488678181195     # npts, delta, cutoff
     0.000000000000000         1.534895653217720    
    0.1142983703042324E-01     1.534626671663161    
    0.2285967406084647E-01     1.533828071064538    
    0.3428951109126971E-01     1.532499338290787    
    0.4571934812169295E-01     1.530643851936042    
    0.5714918515211619E-01     1.528266301184435    
    0.6857902218253942E-01     1.525372644769269    
    0.8000885921296266E-01     1.521970059828669    
    0.9143869624338589E-01     1.518066881240509    
    0.1028685332738091         1.513672532422300    
    0.1142983703042324         1.508797448739699    
    0.1257282073346556         1.503452994781047    
    0.1371580443650788         1.497651376839639    
    0.1485878813955021         1.491405552001342    
    0.1600177184259253         1.484729135262212    
    0.1714475554563485         1.477636306098699    
    0.1828773924867718         1.470141715882278    
    0.1943072295171950         1.462260397471642    
    0.2057370665476183         1.454007678230649    
    0.2171669035780415         1.445399097610951    
    0.2285967406084647         1.436450330307308    
    0.2400265776388880         1.427177115844071    
    0.2514564146693112         1.417595195286634    
    0.2628862516997345         1.407720255595518    
    0.2743160887301577         1.397567881957289    
    0.2857459257605809         1.387153518239724    
    0.2971757627910042         1.376492435532724    
    0.3086055998214274         1.365599708555642    
    0.3200354368518507         1.354490199539820    
    0.3314652738822739         1.343178549036030    
    0.3428951109126971         1.331679172953643    
    0.3543249479431204         1.320006265014686    
    0.3657547849735436         1.308173803704202    
    0.3771846220039668         1.296195562720441    
    0.3886144590343901         1.284085123876077    
    0.4000442960648133         1.271855891375621    
    0.4114741330952365         1.259521106394976    
    0.4229039701256598         1.247093860916273    
    0.4343338071560830         1.234587109823875    
    0.4457636441865062         1.222013680344349    
    0.4571934812169295         1.209386278012108    
    0.4686233182473527         1.196717488461048    
    0.4800531552777759         1.184019774477691    
    0.4914829923081992         1.171305467899946    
    0.5029128293386225         1.158586756103940    
    0.5143426663690457         1.145875662985703    
    0.5257725033994689         1.133184025656380    
    0.5372023404298921         1.120523464107672    
    0.5486321774603153         1.107905341800991    
    0.5600620144907386         1.095340734404108    
    0.5714918515211619         1.082840384604608    
    0.5829216885515851         1.070414657074257    
    0.5943515255820083         1.058073491566552    
    0.6057813626124315         1.045826355129504    
    0.6172111996428548         1.033682194472098    
    0.6286410366732780         1.021649389554557    
    0.6400708737037013         1.009735709479065    
    0.6515007107341245        0.9979482717384819    
    0.6629305477645477        0.9862935058364942    
    0.6743603847949710        0.9747771222243862    
    0.6857902218253942        0.9634040874087646    
    0.6972200588558174        0.9521786059731958    
    0.7086498958862407        0.9411041101272599    
    0.7200797329166639        0.9301832572518930    
    0.7315095699470872        0.9194179357533494    
    0.7429394069775104        0.9088092793731039    
    0.7543692440079336        0.8983576899312714    
    0.7657990810383569        0.8880628683103449    
    0.7772289180687801        0.8779238533180764    
    0.7886587550992034        0.8679390679068733    
    0.8000885921296266        0.8581063720756265    
    0.8115184291600498        0.8484231216418587    
    0.8229482661904730        0.8388862319503861    
    0.8343781032208963        0.8294922454820557    
    0.8458079402513196        0.8202374022446612    
    0.8572377772817428        0.8111177117696966    
    0.8686676143121660        0.8021290255042803    
    0.8800974513425892        0.7932671083781427    
    0.8915272883730124        0.7845277083410908    
    0.9029571254034358        0.7759066227064628    
    0.9143869624338590        0.7673997601998043    
    0.9258167994642822        0.7590031976978445    
    0.9372466364947054        0.7507132307489670    
    0.9486764735251286        0.7425264170903089    
    0.9601063105555518        0.7344396125157256    
    0.9715361475859752        0.7264499986000497    
    0.9829659846163984        0.7185551020119298    
    0.9943958216468216        0.7107528047224090    
     1.005825658677245        0.7030413465705764    
     1.017255495707668        0.6954193189200707    
     1.028685332738091        0.6878855487921243    
     1.040115169768514        0.6804389310022168    
     1.051545006798938        0.6730783689172908    
     1.062974843829361        0.6658027816155001    
     1.074404680859784        0.6586111021537778    
     1.085834517890208        0.6515022774793985    
     1.097264354920631        0.6444752683065539    
     1.108694191951054        0.6375290489626777    
     1.120124028981477        0.6306626072342463    
     1.131553866011900        0.6238749442124927    
     1.142983703042324        0.6171650741391510    
     1.154413540072747        0.6105320242523368    
     1.165843377103170        0.6039748346326709    
     1.177273214133593        0.5974925580497406    
     1.188703051164017        0.5910842598089836    
     1.200132888194440        0.5847490175990900    
     1.211562725224863        0.5784859213399921    
     1.222992562255286        0.5722940730315192    
     1.234422399285710        0.5661725866027911    
     1.245852236316133        0.5601205877624066    
     1.257282073346556        0.5541372138494973    
     1.268711910376979        0.5482216136856933    
     1.280141747407403        0.5423729474280611    
     1.291571584437826        0.5365903864230557    
     1.303001421468249        0.5308731130615381    
     1.314431258498672        0.5252203206348922    
     1.325861095529095        0.5196312131922850    
     1.337290932559519        0.5141050053991053    
     1.348720769589942        0.5086409223966062    
     1.360150606620365        0.5032381996627908    
     1.371580443650788        0.4978960828745581    
     1.383010280681212        0.4926138277711400    
     1.394440117711635        0.4873907000188475    
     1.405869954742058        0.4822259750771485    
     1.417299791772481        0.4771189380660901    
     1.428729628802905        0.4720688836350870    
     1.440159465833328        0.4670751158330811    
     1.451589302863751        0.4621369479800932    
     1.463019139894174        0.4572537025401695    
     1.474448976924598        0.4524247109957351    
     1.485878813955021        0.4476493137233574    
     1.497308650985444        0.4429268598709300    
     1.508738488015867        0.4382567072362760    
     1.520168325046291        0.4336382221471750    
     1.531598162076714        0.4290707793428171    
     1.543027999107137        0.4245537618566813    
     1.554457836137560        0.4200865609008373    
     1.565887673167983        0.4156685757516733    
     1.577317510198407        0.4112992136370395    
     1.588747347228830        0.4069778896248125    
     1.600177184259253        0.4027040265128661    
     1.611607021289676        0.3984770547204536    
     1.623036858320100        0.3942964121809857    
     1.634466695350523        0.3901615442362055    
     1.645896532380946        0.3860719035317461    
     1.657326369411369        0.3820269499140693    
     1.668756206441793        0.3780261503287718    
     1.680186043472216        0.3740689787202519    
     1.691615880502639        0.3701549159327281    
     1.703045717533062        0.3662834496125968    
     1.714475554563486        0.3624540741121223    
     1.725905391593909        0.3586662903944442    
     1.737335228624332        0.3549196059398959    
     1.748765065654755        0.3512135346536174    
     1.760194902685178        0.3475475967744552    
     1.771624739715602        0.3439213187851350    
     1.783054576746025        0.3403342333236957    
     1.794484413776448        0.3367858790961710    
     1.805914250806872        0.3332758007905084    
     1.817344087837295        0.3298035489917108    
     1.828773924867718        0.3263686800981872    
     1.840203761898141        0.3229707562393028    
     1.851633598928564        0.3196093451941117    
     1.863063435958988        0.3162840203112589    
     1.874493272989411        0.3129943604300425    
     1.885923110019834        0.3097399498026173    
     1.897352947050257        0.3065203780173295    
     1.908782784080681        0.3033352399231681    
     1.920212621111104        0.3001841355553205    
     1.931642458141527        0.2970666700618148    
     1.943072295171950        0.2939824536312419    
     1.954502132202373        0.2909311014215374    
     1.965931969232797        0.2879122334898130    
     1.977361806263220        0.2849254747232239    
     1.988791643293643        0.2819704547708579    
     2.000221480324067        0.2790468079766322    
     2.011651317354490        0.2761541733131861    
     2.023081154384913        0.2732921943167554    
     2.034510991415336        0.2704605190230142    
     2.045940828445759        0.2676587999038740    
     2.057370665476183        0.2648866938052230    
     2.068800502506606        0.2621438618855954    
     2.080230339537029        0.2594299695557575    
     2.091660176567452        0.2567446864191949    
     2.103090013597876        0.2540876862134938    
     2.114519850628299        0.2514586467525974    
     2.125949687658722        0.2488572498699283    
     2.137379524689145        0.2462831813623648    
     2.148809361719568        0.2437361309350574    
     2.160239198749992        0.2412157921470732    
     2.171669035780415        0.2387218623578576    
     2.183098872810838        0.2362540426744998    
     2.194528709841261        0.2338120378997906    
     2.205958546871685        0.2313955564810620    
     2.217388383902108        0.2290043104597957    
     2.228818220932531        0.2266380154219883    
     2.240248057962954        0.2242963904492639    
     2.251677894993378        0.2219791580707225    
     2.263107732023801        0.2196860442155112    
     2.274537569054224        0.2174167781661094    
     2.285967406084648        0.2151710925123156    
     2.297397243115070        0.2129487231059274    
     2.308827080145494        0.2107494090161002    
     2.320256917175917        0.2085728924853792    
     2.331686754206340        0.2064189188863894    
     2.343116591236764        0.2042872366791774    
     2.354546428267187        0.2021775973691932    
     2.365976265297610        0.2000897554659014    
     2.377406102328033        0.1980234684420140    
     2.388835939358457        0.1959784966933328    
     2.400265776388880        0.1939546034991947    
     2.411695613419303        0.1919515549835079    
     2.423125450449726        0.1899691200763714    
     2.434555287480149        0.1880070704762681    
     2.445985124510573        0.1860651806128213    
     2.457414961540996        0.1841432276101098    
     2.468844798571419        0.1822409912505276    
     2.480274635601842        0.1803582539391826    
     2.491704472632266        0.1784948006688258    
     2.503134309662689        0.1766504189853023    
     2.514564146693112        0.1748248989535149    
     2.525993983723535        0.1730180331238931    
     2.537423820753959        0.1712296164993599    
     2.548853657784382        0.1694594465027883    
     2.560283494814805        0.1677073229449382    
     2.571713331845228        0.1659730479928684    
     2.583143168875651        0.1642564261388142    
     2.594573005906075        0.1625572641695264    
     2.606002842936498        0.1608753711360578    
     2.617432679966921        0.1592105583239991    
     2.628862516997344        0.1575626392241494    
     2.640292354027768        0.1559314295036172    
     2.651722191058191        0.1543167469773482    
     2.663152028088614        0.1527184115800651    
     2.674581865119038        0.1511362453386231    
     2.686011702149461        0.1495700723447658    
     2.697441539179884        0.1480197187282787    
     2.708871376210307        0.1464850126305361    
     2.720301213240730        0.1449657841784297    
     2.731731050271154        0.1434618654586789    
     2.743160887301577        0.1419730904925117    
     2.754590724332000        0.1404992952107129    
     2.766020561362423        0.1390403174290346    
     2.777450398392847        0.1375959968239589    
     2.788880235423270        0.1361661749088137    
     2.800310072453693        0.1347506950102299    
     2.811739909484116        0.1333494022449382    
     2.823169746514540        0.1319621434968987    
     2.834599583544963        0.1305887673947585    
     2.846029420575386        0.1292291242896322    
     2.857459257605809        0.1278830662331988    
     2.868889094636232        0.1265504469561131    
     2.880318931666656        0.1252311218467227    
     2.891748768697079        0.1239249479300884    
     2.903178605727502        0.1226317838473030    
     2.914608442757925        0.1213514898351019    
     2.926038279788349        0.1200839277057643    
     2.937468116818772        0.1188289608272958    
     2.948897953849195        0.1175864541038933    
     2.960327790879618        0.1163562739566820    
     2.971757627910041        0.1151382883047262    
     2.983187464940465        0.1139323665463034    
     2.994617301970888        0.1127383795404442    
     3.006047139001311        0.1115561995887270    
     3.017476976031734        0.1103857004173290    
     3.028906813062158        0.1092267571607752    
     3.040336650092581        0.1080792463646175    
     3.051766487123004        0.1069430459304790    
     3.063196324153428        0.1058180351076658    
     3.074626161183851        0.1047040944840168    
     3.086055998214274        0.1036011059694049    
     3.097485835244697        0.1025089527794587    
     3.108915672275121        0.1014275194195069    
     3.120345509305543        0.1003566916687439    
     3.131775346335967        0.9929635656461247E-01
     3.143205183366390        0.9824640238739996E-01
     3.154635020396813        0.9720671864504478E-01
     3.166064857427237        0.9617719605815055E-01
     3.177494694457660        0.9515772654520449E-01
     3.188924531488083        0.9414820320799523E-01
     3.200354368518506        0.9314852031723035E-01
     3.211784205548930        0.9215857329834672E-01
     3.223214042579353        0.9117825871751391E-01
     3.234643879609776        0.9020747426782612E-01
     3.246073716640199        0.8924611875567895E-01
     3.257503553670622        0.8829409208733047E-01
     3.268933390701046        0.8735129525564274E-01
     3.280363227731469        0.8641763032699847E-01
     3.291793064761892        0.8549300042839529E-01
     3.303222901792315        0.8457730973471075E-01
     3.314652738822739        0.8367046345613668E-01
     3.326082575853162        0.8277236782578080E-01
     3.337512412883585        0.8188293008743275E-01
     3.348942249914008        0.8100205848349247E-01
     3.360372086944432        0.8012966224305650E-01
     3.371801923974855        0.7926565157016305E-01
     3.383231761005278        0.7840993763219101E-01
     3.394661598035702        0.7756243254841128E-01
     3.406091435066124        0.7672304937868821E-01
     3.417521272096548        0.7589170211232875E-01
     3.428951109126971        0.7506830565707823E-01
     3.440380946157394        0.7425277582825768E-01
     3.451810783187817        0.7344502933804381E-01
     3.463240620218241        0.7264498378488833E-01
     3.474670457248664        0.7185255764307320E-01
     3.486100294279087        0.7106767025240267E-01
     3.497530131309511        0.7029024180802647E-01
     3.508959968339934        0.6952019335039536E-01
     3.520389805370357        0.6875744675534594E-01
     3.531819642400780        0.6800192472431218E-01
     3.543249479431203        0.6725355077466244E-01
     3.554679316461627        0.6651224923016023E-01
     3.566109153492050        0.6577794521154678E-01
     3.577538990522473        0.6505056462724322E-01
     3.588968827552896        0.6433003416417148E-01
     3.600398664583320        0.6361628127869141E-01
     3.611828501613743        0.6290923418765230E-01
     3.623258338644166        0.6220882185955839E-01
     3.634688175674589        0.6151497400584503E-01
     3.646118012705013        0.6082762107226550E-01
     3.657547849735436        0.6014669423038514E-01
     3.668977686765859        0.5947212536918303E-01
     3.680407523796282        0.5880384708675853E-01
     3.691837360826705        0.5814179268214135E-01
     3.703267197857129        0.5748589614720448E-01
     3.714697034887552        0.5683609215867641E-01
     3.726126871917975        0.5619231607025410E-01
     3.737556708948398        0.5555450390481324E-01
     3.748986545978822        0.5492259234671450E-01
     3.760416383009245        0.5429651873420580E-01
     3.771846220039668        0.5367622105191751E-01
     3.783276057070091        0.5306163792345041E-01
     3.794705894100515        0.5245270860405479E-01
     3.806135731130938        0.5184937297339909E-01
     3.817565568161361        0.5125157152842744E-01
     3.828995405191784        0.5065924537630417E-01
     3.840425242222207        0.5007233622744464E-01
     3.851855079252631        0.4949078638863096E-01
     3.863284916283054        0.4891453875621072E-01
     3.874714753313477        0.4834353680937933E-01
     3.886144590343901        0.4777772460354309E-01
     3.897574427374324        0.4721704676376232E-01
     3.909004264404747        0.4666144847827367E-01
     3.920434101435170        0.4611087549209093E-01
     3.931863938465594        0.4556527410068247E-01
     3.943293775496017        0.4502459114372400E-01
     3.954723612526440        0.4448877399892728E-01
     3.966153449556863        0.4395777057594128E-01
     3.977583286587286        0.4343152931032769E-01
     3.989013123617710        0.4290999915760654E-01
     4.000442960648133        0.4239312958737355E-01
     4.011872797678556        0.4188087057748778E-01
     4.023302634708980        0.4137317260832683E-01
     4.034732471739402        0.4086998665711070E-01
     4.046162308769826        0.4037126419229310E-01
     4.057592145800249        0.3987695716801784E-01
     4.069021982830672        0.3938701801864134E-01
     4.080451819861096        0.3890139965331894E-01
     4.091881656891519        0.3842005545065480E-01
     4.103311493921942        0.3794293925341431E-01
     4.114741330952365        0.3747000536329841E-01
     4.126171167982789        0.3700120853577879E-01
     4.137601005013212        0.3653650397499309E-01
     4.149030842043635        0.3607584732869929E-01
     4.160460679074058        0.3561919468328920E-01
     4.171890516104481        0.3516650255885890E-01
     4.183320353134905        0.3471772790433632E-01
     4.194750190165328        0.3427282809266601E-01
     4.206180027195751        0.3383176091604741E-01
     4.217609864226175        0.3339448458122973E-01
     4.229039701256598        0.3296095770485986E-01
     4.240469538287021        0.3253113930888368E-01
     4.251899375317444        0.3210498881599989E-01
     4.263329212347867        0.3168246604516629E-01
     4.274759049378290        0.3126353120715630E-01
     4.286188886408714        0.3084814490016662E-01
     4.297618723439137        0.3043626810547519E-01
     4.309048560469560        0.3002786218314703E-01
     4.320478397499984        0.2962288886778984E-01
     4.331908234530407        0.2922131026435747E-01
     4.343338071560830        0.2882308884399962E-01
     4.354767908591254        0.2842818743995950E-01
     4.366197745621676        0.2803656924351732E-01
     4.377627582652099        0.2764819779997814E-01
     4.389057419682523        0.2726303700470623E-01
     4.400487256712946        0.2688105109920304E-01
     4.411917093743369        0.2650220466722834E-01
     4.423346930773793        0.2612646263096558E-01
     4.434776767804216        0.2575379024722942E-01
     4.446206604834639        0.2538415310371498E-01
     4.457636441865063        0.2501751711528921E-01
     4.469066278895486        0.2465384852032316E-01
     4.480496115925908        0.2429311387706429E-01
     4.491925952956332        0.2393528006004937E-01
     4.503355789986755        0.2358031425655633E-01
     4.514785627017178        0.2322818396309540E-01
     4.526215464047602        0.2287885698193855E-01
     4.537645301078025        0.2253230141768679E-01
     4.549075138108448        0.2218848567387536E-01
     4.560504975138872        0.2184737844961541E-01
     4.571934812169295        0.2150894873627255E-01
     4.583364649199718        0.2117316581418159E-01
     4.594794486230141        0.2083999924939634E-01
     4.606224323260564        0.2050941889047518E-01
     4.617654160290988        0.2018139486530150E-01
     4.629083997321411        0.1985589757793726E-01
     4.640513834351834        0.1953289770551197E-01
     4.651943671382258        0.1921236619514412E-01
     4.663373508412681        0.1889427426089568E-01
     4.674803345443104        0.1857859338075982E-01
     4.686233182473527        0.1826529529367995E-01
     4.697663019503950        0.1795435199660144E-01
     4.709092856534373        0.1764573574155397E-01
     4.720522693564797        0.1733941903276546E-01
     4.731952530595220        0.1703537462380634E-01
     4.743382367625643        0.1673357551476389E-01
     4.754812204656067        0.1643399494944713E-01
     4.766242041686490        0.1613660641262015E-01
     4.777671878716913        0.1584138362726556E-01
     4.789101715747337        0.1554830055187622E-01
     4.800531552777760        0.1525733137777525E-01
     4.811961389808182        0.1496845052646455E-01
     4.823391226838606        0.1468163264700056E-01
     4.834821063869029        0.1439685261339770E-01
     4.846250900899452        0.1411408552205878E-01
     4.857680737929876        0.1383330668923175E-01
     4.869110574960299        0.1355449164849377E-01
     4.880540411990722        0.1327761614825984E-01
     4.891970249021146        0.1300265614931861E-01
     4.903400086051569        0.1272958782239283E-01
     4.914829923081991        0.1245838754572488E-01
     4.926259760112415        0.1218903190268735E-01
     4.937689597142838        0.1192149767941789E-01
     4.949119434173261        0.1165576186247853E-01
     4.960549271203685        0.1139180163653847E-01
     4.971979108234108        0.1112959438208065E-01
     4.983408945264531        0.1086911767313201E-01
     4.994838782294955        0.1061034927501594E-01
     5.006268619325378        0.1035326714212824E-01
     5.017698456355801        0.1009784941573506E-01
     5.029128293386224        0.9844074421793367E-02
     5.040558130416647        0.9591920668792719E-02
     5.051987967447070        0.9341366845619595E-02
     5.063417804477494        0.9092391819442474E-02
     5.074847641507917        0.8844974633617980E-02
     5.086277478538340        0.8599094505618301E-02
     5.097707315568764        0.8354730824978762E-02
     5.109137152599187        0.8111863151266337E-02
     5.120566989629610        0.7870471212067409E-02
     5.131996826660034        0.7630534900996355E-02
     5.143426663690456        0.7392034275723072E-02
     5.154856500720880        0.7154949556020142E-02
     5.166286337751303        0.6919261121829661E-02
     5.177716174781726        0.6684949512793886E-02
     5.189146011812150        0.6451995508438785E-02
     5.200575848842573        0.6220381124336532E-02
     5.212005685872996        0.5990093990017993E-02
     5.223435522903420        0.5761136896980133E-02
     5.234865359933843        0.5533540623208234E-02
     5.246295196964265        0.5307376005867333E-02
     5.257725033994689        0.5082762140671639E-02
     5.269154871025112        0.4859869570737830E-02
     5.280584708055535        0.4638918837766318E-02
     5.292014545085959        0.4420175480605761E-02
     5.303444382116382        0.4203942707199055E-02
     5.314874219146805        0.3990552819054250E-02
     5.326304056177229        0.3780358223153114E-02
     5.337733893207652        0.3573722622325099E-02
     5.349163730238075        0.3371012770515326E-02
     5.360593567268498        0.3172591022730464E-02
     5.372023404298921        0.2978808796389543E-02
     5.383453241329344        0.2790000982860385E-02
     5.394883078359768        0.2606481296460254E-02
     5.406312915390191        0.2428538515810644E-02
     5.417742752420614        0.2256433553422805E-02
     5.429172589451038        0.2090397279522187E-02
     5.440602426481461        0.1930629022334459E-02
     5.452032263511884        0.1777295667212426E-02
     5.463462100542308        0.1630531279585429E-02
     5.474891937572730        0.1490437180747248E-02
     5.486321774603153        0.1357082410261208E-02
     5.497751611633577        0.1230504513786205E-02
     5.509181448664000        0.1110710600073366E-02
     5.520611285694423        0.9976786155135222E-03
     5.532041122724847        0.8913587887097822E-03
     5.543470959755270        0.7916752008872270E-03
     5.554900796785693        0.6985274402248528E-03
     5.566330633816117        0.6117922989285236E-03
     5.577760470846539        0.5313254702366735E-03
     5.589190307876962        0.4569631970605201E-03
     5.600620144907386        0.3885238117412740E-03
     5.612049981937809        0.3258090816908830E-03
     5.623479818968232        0.2686052262066885E-03
     5.634909655998656        0.2166833675733503E-03
     5.646339493029079        0.1697989554383648E-03
     5.657769330059502        0.1276891663600621E-03
     5.669199167089926        0.9006582391698714E-04
     5.680629004120349        0.5659666438445294E-04
     5.692058841150772        0.2684748454302091E-04
     5.703488678181195         0.000000000000000    
  0  1  2  0  0.000000   #orbital l, n, z, is_polarized, population
 500    0.7495545917578173E-02     3.740277412871508     # npts, delta, cutoff
     0.000000000000000         2.072824430423722    
    0.7495545917578173E-02     2.072648567467791    
    0.1499109183515635E-01     2.072132706329665    
    0.2248663775273452E-01     2.071273574283746    
    0.2998218367031269E-01     2.070072117155812    
    0.3747772958789087E-01     2.068529655617855    
    0.4497327550546904E-01     2.066647879348870    
    0.5246882142304721E-01     2.064428840569708    
    0.5996436734062539E-01     2.061874946355759    
    0.6745991325820357E-01     2.058988949711979    
    0.7495545917578174E-01     2.055773939460893    
    0.8245100509335991E-01     2.052233329012983    
    0.8994655101093808E-01     2.048370844099184    
    0.9744209692851626E-01     2.044190509552974    
    0.1049376428460944         2.039696635236135    
    0.1124331887636726         2.034893801207622    
    0.1199287346812508         2.029786842239614    
    0.1274242805988290         2.024380831788359    
    0.1349198265164071         2.018681065530043    
    0.1424153724339853         2.012693044573555    
    0.1499109183515635         2.006422458462701    
    0.1574064642691416         1.999875168080048    
    0.1649020101867198         1.993057188563297    
    0.1723975561042980         1.985974672342829    
    0.1798931020218762         1.978633892405831    
    0.1873886479394543         1.971041225888336    
    0.1948841938570325         1.963203138091579    
    0.2023797397746107         1.955126167013251    
    0.2098752856921889         1.946816908477844    