<preamble>

<basis_specs>
===============================================================================
Kr                   Z=  36    Mass=  83.798        Charge= 0.17977+309
Lmxo=2 Lmxkb= 2    BasisType=split      Semic=F
L=0  Nsemic=0  Cnfigmx=4
          i=1  nzeta=2  polorb=0  (4s)
            splnorm:   0.15000    
               vcte:    40.000    
               rinn:    3.8657    
               qcoe:    0.0000    
               qyuk:    0.0000    
               qwid:   0.10000E-01
                rcs:    4.2909      2.8615    
            lambdas:    1.0000      1.0000    
L=1  Nsemic=0  Cnfigmx=4
          i=1  nzeta=2  polorb=1  (4p)  (to be polarized perturbatively)
            splnorm:   0.15000    
               vcte:    40.000    
               rinn:    4.8824    
               qcoe:    0.0000    
               qyuk:    0.0000    
               qwid:   0.10000E-01
                rcs:    5.4248      3.6660    
            lambdas:    1.0000      1.0000    
L=2  Nsemic=0  Cnfigmx=4
          i=1  nzeta=0  polorb=0  (4d)  (perturbative polarization orbital) (from 4p)
-------------------------------------------------------------------------------
L=0  Nkbl=1  erefs: 0.17977+309
L=1  Nkbl=1  erefs: 0.17977+309
L=2  Nkbl=1  erefs: 0.17977+309
===============================================================================
</basis_specs>

<pseudopotential_header>
 Kr pw nrl pcec
 ONCVPSP-3.2018-03-09Hamann's oncvpsp                        
 4s 2.00  r= 1.76/4p 6.00  r= 1.51/4d 0.00  r= 1.80/                    4s:4p:
</pseudopotential_header>
</preamble>
Kr                            # Symbol
Kr                            # Label
   36                         # Atomic number
     8.00000000000                             # Valence charge
     83.7980000000        # Mass 
     68.8966018116        # Self energy 
   2   5                      # Lmax for basis, no. of nl orbitals 
   2   6                      # Lmax for projectors, no. of nl KB projectors
# PAOs:__________________________
  0  4  1  0  2.000000   #orbital l, n, z, is_polarized, population
 500    0.8599045494671944E-02     4.290923701841300     # npts, delta, cutoff
     0.000000000000000        0.9920717199792632E-01
    0.8599045494671944E-02    0.9932590436908981E-01
    0.1719809098934389E-01    0.9968597157394737E-01
    0.2579713648401583E-01    0.1002857796889914    
    0.3439618197868777E-01    0.1011248711290187    
    0.4299522747335972E-01    0.1022026060804229    
    0.5159427296803167E-01    0.1035181625907106    
    0.6019331846270361E-01    0.1050705369790656    
    0.6879236395737555E-01    0.1068585443774886    
    0.7739140945204749E-01    0.1088808193833392    
    0.8599045494671943E-01    0.1111358168215705    
    0.9458950044139137E-01    0.1136218126183881    
    0.1031885459360633        0.1163369047891604    
    0.1117875914307353        0.1192790145439374    
    0.1203866369254072        0.1224458875142696    
    0.1289856824200792        0.1258350951052796    
    0.1375847279147511        0.1294440359771234    
    0.1461837734094230        0.1332699376601341    
    0.1547828189040950        0.1373098583080275    
    0.1633818643987669        0.1415606885935997    
    0.1719809098934389        0.1460191537513509    
    0.1805799553881108        0.1506818157714068    
    0.1891790008827827        0.1555450757490197    
    0.1977780463774547        0.1606051763937740    
    0.2063770918721267        0.1658582047024194    
    0.2149761373667986        0.1713000947990056    
    0.2235751828614705        0.1769266309456944    
    0.2321742283561425        0.1827334507272762    
    0.2407732738508144        0.1887160484120285    
    0.2493723193454864        0.1948697784911161    
    0.2579713648401583        0.2011898593982565    
    0.2665704103348303        0.2076713774108563    
    0.2751694558295022        0.2143092907332693    
    0.2837685013241741        0.2210984337622459    
    0.2923675468188461        0.2280335215340204    
    0.3009665923135180        0.2351091543518387    
    0.3095656378081900        0.2423198225920631    
    0.3181646833028619        0.2496599116863045    
    0.3267637287975338        0.2571237072763265    
    0.3353627742922058        0.2647054005377473    
    0.3439618197868777        0.2723990936678571    
    0.3525608652815497        0.2801988055321208    
    0.3611599107762216        0.2880984774632396    
    0.3697589562708936        0.2960919792058965    
    0.3783580017655655        0.3041731149996318    
    0.3869570472602374        0.3123356297915726    
    0.3955560927549094        0.3205732155700869    
    0.4041551382495813        0.3288795178097721    
    0.4127541837442533        0.3372481420175538    
    0.4213532292389253        0.3456726603690928    
    0.4299522747335972        0.3541466184241239    
    0.4385513202282691        0.3626635419088424    
    0.4471503657229411        0.3712169435529548    
    0.4557494112176130        0.3798003299686074    
    0.4643484567122850        0.3884072085579869    
    0.4729475022069569        0.3970310944360763    
    0.4815465477016289        0.4056655173547654    
    0.4901455931963008        0.4143040286142713    
    0.4987446386909727        0.4229402079476853    
    0.5073436841856447        0.4315676703643279    
    0.5159427296803166        0.4401800729375524    
    0.5245417751749886        0.4487711215226627    
    0.5331408206696605        0.4573345773906563    
    0.5417398661643325        0.4658642637636618    
    0.5503389116590044        0.4743540722381228    
    0.5589379571536763        0.4827979690820454    
    0.5675370026483483        0.4911900013929237    
    0.5761360481430202        0.4995243031033524    
    0.5847350936376922        0.5077951008217524    
    0.5933341391323641        0.5159967194961295    
    0.6019331846270360        0.5241235878893000    
    0.6105322301217080        0.5321702438546513    
    0.6191312756163799        0.5401313394020730    
    0.6277303211110519        0.5480016455444402    
    0.6363293666057238        0.5557760569156863    
    0.6449284121003958        0.5634495961523146    
    0.6535274575950677        0.5710174180309249    
    0.6621265030897396        0.5784748133552057    
    0.6707255485844116        0.5858172125866355    
    0.6793245940790835        0.5930401892140272    
    0.6879236395737555        0.6001394628579059    
    0.6965226850684274        0.6071109021066265    
    0.7051217305630993        0.6139505270819755    
    0.7137207760577713        0.6206545117329842    
    0.7223198215524432        0.6272191858574697    
    0.7309188670471152        0.6336410368518149    
    0.7395179125417871        0.6399167111902712    
    0.7481169580364591        0.6460430156360144    
    0.7567160035311310        0.6520169181869562    
    0.7653150490258029        0.6578355487601703    
    0.7739140945204749        0.6634961996195563    
    0.7825131400151468        0.6689963255521229    
    0.7911121855098188        0.6743335437989920    
    0.7997112310044907        0.6795056337478959    
    0.8083102764991626        0.6845105363945750    
    0.8169093219938346        0.6893463535810862    
    0.8255083674885066        0.6940113470195473    
    0.8341074129831786        0.6985039371103535    
    0.8427064584778505        0.7028227015643429    
    0.8513055039725225        0.7069663738387405    
    0.8599045494671944        0.7109338413970836    
    0.8685035949618664        0.7147241438035580    
    0.8771026404565383        0.7183364706624257    
    0.8857016859512102        0.7217701594133603    
    0.8943007314458822        0.7250246929936035    
    0.9028997769405541        0.7280996973779151    
    0.9114988224352261        0.7309949390072619    
    0.9200978679298980        0.7337103221171136    
    0.9286969134245699        0.7362458859761226    
    0.9372959589192419        0.7386018020457303    
    0.9458950044139138        0.7407783710710876    
    0.9544940499085858        0.7427760201133369    
    0.9630930954032577        0.7445952995330175    
    0.9716921408979297        0.7462368799339998    
    0.9802911863926016        0.7477015490769034    
    0.9888902318872735        0.7489902087705811    
    0.9974892773819455        0.7501038717497119    
     1.006088322876617        0.7510436585460953    
     1.014687368371289        0.7518107943606681    
     1.023286413865961        0.7524066059427492    
     1.031885459360633        0.7528325184824263    
     1.040484504855305        0.7530900525214173    
     1.049083550349977        0.7531808208871594    
     1.057682595844649        0.7531065256542672    
     1.066281641339321        0.7528689551369001    
     1.074880686833993        0.7524699809149944    
     1.083479732328665        0.7519115548967069    
     1.092078777823337        0.7511957064188455    
     1.100677823318009        0.7503245393864897    
     1.109276868812681        0.7493002294524571    
     1.117875914307353        0.7481250212367416    
     1.126474959802025        0.7468012255855376    
     1.135074005296697        0.7453312168690074    
     1.143673050791369        0.7437174303164735    
     1.152272096286040        0.7419623593873390    
     1.160871141780712        0.7400685531756251    
     1.169470187275384        0.7380386138457123    
     1.178069232770056        0.7358751940965432    
     1.186668278264728        0.7335809946513017    
     1.195267323759400        0.7311587617693672    
     1.203866369254072        0.7286112847767642    
     1.212465414748744        0.7259413971129646    
     1.221064460243416        0.7231519647262075    
     1.229663505738088        0.7202458900592918    
     1.238262551232760        0.7172261102698011    
     1.246861596727432        0.7140955933956231    
     1.255460642222104        0.7108573359243541    
     1.264059687716776        0.7075143603569209    
     1.272658733211448        0.7040697127622770    
     1.281257778706120        0.7005264603202326    
     1.289856824200792        0.6968876888497425    
     1.298455869695464        0.6931565003202611    
     1.307054915190135        0.6893360103441000    
     1.315653960684807        0.6854293456480645    
     1.324253006179479        0.6814396415230406    
     1.332852051674151        0.6773700392505919    
     1.341451097168823        0.6732236835060628    
     1.350050142663495        0.6690037197381109    
     1.358649188158167        0.6647132915250628    
     1.367248233652839        0.6603555379089444    
     1.375847279147511        0.6559335907085110    
     1.384446324642183        0.6514505718130784    
     1.393045370136855        0.6469095903983110    
     1.401644415631527        0.6423137381697954    
     1.410243461126199        0.6376660890021666    
     1.418842506620871        0.6329696966591856    
     1.427441552115543        0.6282275912976250    
     1.436040597610215        0.6234427767091754    
     1.444639643104886        0.6186182275688221    
     1.453238688599559        0.6137568866948380    
     1.461837734094230        0.6088616623260517    
     1.470436779588902        0.6039354254223884    
     1.479035825083574        0.5989810069949567    
     1.487634870578246        0.5940011954722193    
     1.496233916072918        0.5889987341089898    
     1.504832961567590        0.5839763184452023    
     1.513432007062262        0.5789365938215075    
     1.522031052556934        0.5738821529588758    
     1.530630098051606        0.5688155336094256    
     1.539229143546278        0.5637392162857152    
     1.547828189040950        0.5586556220756930    
     1.556427234535622        0.5535671105504542    
     1.565026280030294        0.5484759777718080    
     1.573625325524966        0.5433844544065004    
     1.582224371019638        0.5382947039537542    
     1.590823416514310        0.5332088210925031    
     1.599422462008981        0.5281288301544462    
     1.608021507503653        0.5230566837286921    
     1.616620552998325        0.5179942614034256    
     1.625219598492997        0.5129433686495933    
     1.633818643987669        0.5079057358512110    
     1.642417689482341        0.5028830174863934    
     1.651016734977013        0.4978767914627366    
     1.659615780471685        0.4928885586101618    
     1.668214825966357        0.4879197423337646    
     1.676813871461029        0.4829716884286868    
     1.685412916955701        0.4780456650584170    
     1.694011962450373        0.4731428628973487    
     1.702611007945045        0.4682643954303429    
     1.711210053439717        0.4634112993169319    
     1.719809098934389        0.4585845352111186    
     1.728408144429061        0.4537849890686551    
     1.737007189923733        0.4490134728111316    
     1.745606235418405        0.4442707233714528    
     1.754205280913077        0.4395574035163525    
     1.762804326407748        0.4348741081108199    
     1.771403371902420        0.4302213736764358    
     1.780002417397092        0.4255996888761877    
     1.788601462891764        0.4210095046722876    
     1.797200508386436        0.4164512423565181    
     1.805799553881108        0.4119252956024463    
     1.814398599375780        0.4074320295017247    
     1.822997644870452        0.4029717802368742    
     1.831596690365124        0.3985448566303408    
     1.840195735859796        0.3941515415991469    
     1.848794781354468        0.3897920931015892    
     1.857393826849140        0.3854667450115720    
     1.865992872343812        0.3811757080329939    
     1.874591917838484        0.3769191705910722    
     1.883190963333156        0.3726972996941350    
     1.891790008827828        0.3685102417680748    
     1.900389054322499        0.3643581234644410    
     1.908988099817172        0.3602410524428808    
     1.917587145311843        0.3561591181286526    
     1.926186190806515        0.3521123924458982    
     1.934785236301187        0.3481009305273618    
     1.943384281795859        0.3441247714012046    
     1.951983327290531        0.3401839386555793    
     1.960582372785203        0.3362784410815842    
     1.969181418279875        0.3324082732952185    
     1.977780463774547        0.3285734163389445    
     1.986379509269219        0.3247738382634407    
     1.994978554763891        0.3210094946901167    
     2.003577600258563        0.3172803293549580    
     2.012176645753235        0.3135862746342374    
     2.020775691247907        0.3099272520526278    
     2.029374736742579        0.3063031727742397    
     2.037973782237251        0.3027139380770739    
     2.046572827731922        0.2991594398114042    
     2.055171873226595        0.2956395608425437    
     2.063770918721267        0.2921541754784834    
     2.072369964215938        0.2887031498828436    
     2.080969009710610        0.2852863424735859    
     2.089568055205282        0.2819036043079198    
     2.098167100699954        0.2785547794538145    
     2.106766146194626        0.2752397053485339    
     2.115365191689298        0.2719582131445823    
     2.123964237183970        0.2687101280434570    
     2.132563282678642        0.2654952696175722    
     2.141162328173314        0.2623134521207320    
     2.149761373667986        0.2591644847874925    
     2.158360419162658        0.2560481721217783    
     2.166959464657330        0.2529643141750653    
     2.175558510152002        0.2499127068144794    
     2.184157555646673        0.2468931419811087    
     2.192756601141346        0.2439054079388535    
     2.201355646636018        0.2409492895140985    
     2.209954692130689        0.2380245683265123    
     2.218553737625362        0.2351310230112432    
     2.227152783120034        0.2322684294327999    
     2.235751828614705        0.2294365608908656    
     2.244350874109377        0.2266351883183266    
     2.252949919604049        0.2238640804717412    
     2.261548965098721        0.2211230041145185    
     2.270148010593393        0.2184117241930205    
     2.278747056088065        0.2157300040058337    
     2.287346101582737        0.2130776053664261    
     2.295945147077409        0.2104542887594048    
     2.304544192572081        0.2078598134905883    
     2.313143238066753        0.2052939378310932    
     2.321742283561425        0.2027564191556347    
     2.330341329056097        0.2002470140752343    
     2.338940374550769        0.1977654785645138    
     2.347539420045440        0.1953115680837634    
     2.356138465540113        0.1928850376959559    
     2.364737511034785        0.1904856421788725    
     2.373336556529456        0.1881131361325112    
     2.381935602024128        0.1857672740819304    
     2.390534647518801        0.1834478105756869    
     2.399133693013472        0.1811545002800175    
     2.407732738508144        0.1788870980689023    
     2.416331784002816        0.1766453591101608    
     2.424930829497488        0.1744290389477091    
     2.433529874992160        0.1722378935801130    
     2.442128920486832        0.1700716795355622    
     2.450727965981504        0.1679301539433965    
     2.459327011476176        0.1658130746022915    
     2.467926056970848        0.1637202000452334    
     2.476525102465520        0.1616512896013862    
     2.485124147960192        0.1596061034549627    
     2.493723193454864        0.1575844027012056    
     2.502322238949536        0.1555859493995831    
     2.510921284444207        0.1536105066242895    
     2.519520329938879        0.1516578385121567    
     2.528119375433552        0.1497277103080628    
     2.536718420928223        0.1478198884079308    
     2.545317466422895        0.1459341403994000    
     2.553916511917567        0.1440702351002593    
     2.562515557412239        0.1422279425947212    
     2.571114602906911        0.1404070342676143    
     2.579713648401583        0.1386072828365711    
     2.588312693896255        0.1368284623822864    
     2.596911739390927        0.1350703483769156    
     2.605510784885599        0.1333327177106840    
     2.614109830380271        0.1316153487167679    
     2.622708875874943        0.1299180211945218    
     2.631307921369615        0.1282405164311056    
     2.639906966864287        0.1265826172215762    
     2.648506012358959        0.1249441078875017    
     2.657105057853630        0.1233247742941507    
     2.665704103348303        0.1217244038663185    
     2.674303148842974        0.1201427856028370    
     2.682902194337646        0.1185797100898205    
     2.691501239832318        0.1170349695126988    
     2.700100285326990        0.1155083576670823    
     2.708699330821662        0.1139996699685085    
     2.717298376316334        0.1125087034611108    
     2.725897421811006        0.1110352568252554    
     2.734496467305678        0.1095791303841874    
     2.743095512800350        0.1081401261097237    
     2.751694558295022        0.1067180476270357    
     2.760293603789694        0.1053127002185553    
     2.768892649284366        0.1039238908270442    
     2.777491694779038        0.1025514280578586    
     2.786090740273710        0.1011951221804412    
     2.794689785768382        0.9985478512908104E-01
     2.803288831263054        0.9853023050296317E-01
     2.811887876757726        0.9722127356554568E-01
     2.820486922252397        0.9592773124328821E-01
     2.829085967747070        0.9464942212376416E-01
     2.837685013241741        0.9338616645318314E-01
     2.846284058736413        0.9213778613334703E-01
     2.854883104231085        0.9090410471806991E-01
     2.863482149725757        0.8968494740908263E-01
     2.872081195220429        0.8848014105144786E-01
     2.880680240715101        0.8728951412850754E-01
     2.889279286209773        0.8611289675638428E-01
     2.897878331704445        0.8495012067805983E-01
     2.906477377199117        0.8380101925705025E-01
     2.915076422693789        0.8266542747069588E-01
     2.923675468188461        0.8154318190308843E-01
     2.932274513683133        0.8043412073765033E-01
     2.940873559177805        0.7933808374938729E-01
     2.949472604672477        0.7825491229682840E-01
     2.958071650167148        0.7718444931367113E-01
     2.966670695661821        0.7612653930014758E-01
     2.975269741156493        0.7508102831412920E-01
     2.983868786651164        0.7404776396197757E-01
     2.992467832145836        0.7302659538916513E-01
     3.001066877640509        0.7201737327067287E-01
     3.009665923135180        0.7101994980117975E-01
     3.018264968629852        0.7003417868505707E-01
     3.026864014124524        0.6905991512618005E-01
     3.035463059619196        0.6809701581756759E-01
     3.044062105113868        0.6714533893086236E-01
     3.052661150608540        0.6620474410566049E-01
     3.061260196103212        0.6527509243870420E-01
     3.069859241597884        0.6435624647294393E-01
     3.078458287092556        0.6344807018648230E-01
     3.087057332587228        0.6255042898140732E-01
     3.095656378081900        0.6166318967252662E-01
     3.104255423576572        0.6078622047600592E-01
     3.112854469071244        0.5991939099792651E-01
     3.121453514565915        0.5906257222276526E-01
     3.130052560060587        0.5821563650180496E-01
     3.138651605555260        0.5737845754148450E-01
     3.147250651049931        0.5655091039169480E-01
     3.155849696544603        0.5573287143402533E-01
     3.164448742039275        0.5492421836997081E-01
     3.173047787533947        0.5412483020910291E-01
     3.181646833028619        0.5333458725721092E-01
     3.190245878523291        0.5255337110442061E-01
     3.198844924017963        0.5178106461329434E-01
     3.207443969512635        0.5101755190691737E-01
     3.216043015007307        0.5026271835697754E-01
     3.224642060501979        0.4951645057184028E-01
     3.233241105996651        0.4877863638462544E-01
     3.241840151491323        0.4804916484128992E-01
     3.250439196985995        0.4732792618871977E-01
     3.259038242480667        0.4661481186283545E-01
     3.267637287975338        0.4590971447671544E-01
     3.276236333470011        0.4521252780874017E-01
     3.284835378964682        0.4452314679076057E-01
     3.293434424459354        0.4384146749629492E-01
     3.302033469954027        0.4316738712875567E-01
     3.310632515448698        0.4250080400971051E-01
     3.319231560943370        0.4184161756718047E-01
     3.327830606438042        0.4118972832397662E-01
     3.336429651932714        0.4054503788607857E-01
     3.345028697427386        0.3990744893105917E-01
     3.353627742922058        0.3927686519655238E-01
     3.362226788416730        0.3865319146877282E-01
     3.370825833911402        0.3803633357108541E-01
     3.379424879406074        0.3742619835262624E-01
     3.388023924900746        0.3682269367698011E-01
     3.396622970395418        0.3622572841091322E-01
     3.405222015890090        0.3563521241316359E-01
     3.413821061384762        0.3505105652329180E-01
     3.422420106879434        0.3447317255059182E-01
     3.431019152374105        0.3390147326306443E-01
     3.439618197868778        0.3333587237645399E-01
     3.448217243363449        0.3277628454335011E-01
     3.456816288858121        0.3222262534235461E-01
     3.465415334352793        0.3167481126731589E-01
     3.474014379847465        0.3113275971663020E-01
     3.482613425342137        0.3059638898261272E-01
     3.491212470836809        0.3006561824093647E-01
     3.499811516331481        0.2954036754014244E-01
     3.508410561826153        0.2902055779122080E-01
     3.517009607320825        0.2850611075726231E-01
     3.525608652815497        0.2799694904318260E-01
     3.534207698310169        0.2749299608551900E-01
     3.542806743804841        0.2699417614229961E-01
     3.551405789299513        0.2650041428298651E-01
     3.560004834794185        0.2601163637849186E-01
     3.568603880288856        0.2552776909126840E-01
     3.577202925783529        0.2504873986547423E-01
     3.585801971278201        0.2457447691721147E-01
     3.594401016772872        0.2410490922484034E-01
     3.603000062267544        0.2363996651936669E-01
     3.611599107762216        0.2317957927490579E-01
     3.620198153256888        0.2272367869921960E-01
     3.628797198751560        0.2227219672432953E-01
     3.637396244246232        0.2182506599720423E-01
     3.645995289740904        0.2138221987052120E-01
     3.654594335235576        0.2094359239350423E-01
     3.663193380730248        0.2050911830283406E-01
     3.671792426224920        0.2007873301363478E-01
     3.680391471719592        0.1965237261053320E-01
     3.688990517214264        0.1922997383879286E-01
     3.697589562708936        0.1881147409552214E-01
     3.706188608203608        0.1839681142095476E-01
     3.714787653698280        0.1798592448980486E-01
     3.723386699192952        0.1757875260269379E-01
     3.731985744687623        0.1717523567765060E-01
     3.740584790182295        0.1677531424168375E-01
     3.749183835676968        0.1637892942242553E-01
     3.757782881171639        0.1598602293984820E-01
     3.766381926666311        0.1559653709805005E-01
     3.774980972160983        0.1521041477711381E-01
     3.783580017655655        0.1482759942503405E-01
     3.792179063150327        0.1444803504971532E-01
     3.800778108644999        0.1407166621103927E-01
     3.809377154139671        0.1369843801300061E-01
     3.817976199634343        0.1332829609591243E-01
     3.826575245129015        0.1296118662867813E-01
     3.835174290623687        0.1259705630113218E-01
     3.843773336118359        0.1223585231644673E-01
     3.852372381613031        0.1187752238360584E-01
     3.860971427107703        0.1152201470994423E-01
     3.869570472602375        0.1116927799375273E-01
     3.878169518097047        0.1081926141694772E-01
     3.886768563591719        0.1047191463780533E-01
     3.895367609086390        0.1012718778539678E-01
     3.903966654581062        0.9785031546007711E-02
     3.912565700075735        0.9445398294858300E-02
     3.921164745570406        0.9108247097076857E-02
     3.929763791065078        0.8773554652640132E-02
     3.938362836559750        0.8441330070426150E-02
     3.946961882054422        0.8111628900485383E-02
     3.955560927549094        0.7784562857630571E-02
     3.964159973043766        0.7460303912443378E-02
     3.972759018538438        0.7139083140837175E-02
     3.981358064033110        0.6821185536527532E-02
     3.989957109527782        0.6506942155964189E-02
     3.998556155022454        0.6196720803166128E-02
     4.007155200517126        0.5890916188585347E-02
     4.015754246011798        0.5589940222705822E-02
     4.024353291506469        0.5294212875927923E-02
     4.032952337001142        0.5004153861273283E-02
     4.041551382495814        0.4720175270654208E-02
     4.050150427990485        0.4442675209206509E-02
     4.058749473485157        0.4172032415660605E-02
     4.067348518979830        0.3908601821551870E-02
     4.075947564474501        0.3652710981771828E-02
     4.084546609969173        0.3404657298712383E-02
     4.093145655463845        0.3164705958625517E-02
     4.101744700958517        0.2933088499385939E-02
     4.110343746453189        0.2710001931947958E-02
     4.118942791947861        0.2495608342291359E-02
     4.127541837442533        0.2290034905786896E-02
     4.136140882937205        0.2093374251152190E-02
     4.144739928431877        0.1905685116144562E-02
     4.153338973926549        0.1726993241545308E-02
     4.161938019421220        0.1557292453561352E-02
     4.170537064915893        0.1396545887163797E-02
     4.179136110410565        0.1244687303615806E-02
     4.187735155905236        0.1101622453724172E-02
     4.196334201399909        0.9672304327995215E-03
     4.204933246894581        0.8413649614197124E-03
     4.213532292389252        0.7238555030601009E-03
     4.222131337883924        0.6145080859099848E-03
     4.230730383378596        0.5131056114644874E-03
     4.239329428873268        0.4194072608573850E-03
     4.247928474367940        0.3331462382236964E-03
     4.256527519862612        0.2540242083122651E-03
     4.265126565357284        0.1816984135257127E-03
     4.273725610851956        0.1157498301564317E-03
     4.282324656346628        0.5558822484376874E-04
     4.290923701841300         0.000000000000000    
  0  4  2  0  0.000000   #orbital l, n, z, is_polarized, population
 500    0.5734441734590267E-02     2.861486425560543     # npts, delta, cutoff
     0.000000000000000       -0.3586131518533682    
    0.5734441734590267E-02   -0.3585148710241262    
    0.1146888346918053E-01   -0.3582127047632532    
    0.1720332520377080E-01   -0.3577092035612440    
    0.2293776693836107E-01   -0.3570045365911584    
    0.2867220867295133E-01   -0.3560989393530404    
    0.3440665040754160E-01   -0.3549927143321834    
    0.4014109214213187E-01   -0.3536862310287078    
    0.4587553387672214E-01   -0.3521799258942009    
    0.5160997561131241E-01   -0.3504743022347954    
    0.5734441734590267E-01   -0.3485699300924075    
    0.6307885908049293E-01   -0.3464674461071605    
    0.6881330081508320E-01   -0.3441675533618312    
    0.7454774254967347E-01   -0.3416710212084635    
    0.8028218428426373E-01   -0.3389786850770249    
    0.8601662601885400E-01   -0.3360914462658732    
    0.9175106775344427E-01   -0.3330102717137251    
    0.9748550948803454E-01   -0.3297361937527809    
    0.1032199512226248       -0.3262703098426334    
    0.1089543929572151       -0.3226137822845596    
    0.1146888346918053       -0.3187678379157776    
    0.1204232764263956       -0.3147337677832311    