<preamble>

<basis_specs>
===============================================================================
N                    Z=   7    Mass=  14.007        Charge= 0.17977+309
Lmxo=2 Lmxkb= 1    BasisType=split      Semic=F
L=0  Nsemic=0  Cnfigmx=2
          i=1  nzeta=2  polorb=0  (2s)
            splnorm:   0.15000    
               vcte:    40.000    
               rinn:    3.7928    
               qcoe:    0.0000    
               qyuk:    0.0000    
               qwid:   0.10000E-01
                rcs:    4.2142      2.7024    
            lambdas:    1.0000      1.0000    
L=1  Nsemic=0  Cnfigmx=2
          i=1  nzeta=2  polorb=1  (2p)  (to be polarized perturbatively)
            splnorm:   0.15000    
               vcte:    40.000    
               rinn:    4.6206    
               qcoe:    0.0000    
               qyuk:    0.0000    
               qwid:   0.10000E-01
                rcs:    5.1289      3.2864    
            lambdas:    1.0000      1.0000    
L=2  Nsemic=0  Cnfigmx=3
          i=1  nzeta=0  polorb=0  (3d)  (perturbative polarization orbital) (from 2p)
-------------------------------------------------------------------------------
L=0  Nkbl=1  erefs: 0.17977+309
L=1  Nkbl=1  erefs: 0.17977+309
===============================================================================
</basis_specs>

<pseudopotential_header>
 N  pw nrl pcec
 ONCVPSP-3.2018-03-09Hamann's oncvpsp                        
 2s 2.00  r= 1.21/2p 3.00  r= 1.36/                                     2s:2p:
</pseudopotential_header>
</preamble>
N                             # Symbol
N                             # Label
    7                         # Atomic number
     5.00000000000                             # Valence charge
     14.0070000000        # Mass 
     32.9259621063        # Self energy 
   2   5                      # Lmax for basis, no. of nl orbitals 
   1   4                      # Lmax for projectors, no. of nl KB projectors
# PAOs:__________________________
  0  2  1  0  2.000000   #orbital l, n, z, is_polarized, population
 500    0.8445289906001475E-02     4.214199663094736     # npts, delta, cutoff
     0.000000000000000        0.7221438434798999    
    0.8445289906001475E-02    0.7222831668703394    
    0.1689057981200295E-01    0.7227189188725136    
    0.2533586971800442E-01    0.7234443807404736    
    0.3378115962400590E-01    0.7244583571182687    
    0.4222644953000738E-01    0.7257591781571525    
    0.5067173943600885E-01    0.7273446998646761    
    0.5911702934201032E-01    0.7292123059460095    
    0.6756231924801180E-01    0.7313589102722294    
    0.7600760915401328E-01    0.7337809599068309    
    0.8445289906001475E-01    0.7364744387050778    
    0.9289818896601623E-01    0.7394348715187383    
    0.1013434788720177        0.7426573290452181    
    0.1097887687780192        0.7461364333632968    
    0.1182340586840206        0.7498663641993411    
    0.1266793485900221        0.7538408659684688    
    0.1351246384960236        0.7580532556347235    
    0.1435699284020251        0.7624964314330314    
    0.1520152183080266        0.7671628824934208    
    0.1604605082140280        0.7720446994049066    
    0.1689057981200295        0.7771335857523469    
    0.1773510880260310        0.7824208706548056    
    0.1857963779320325        0.7878975223282192    
    0.1942416678380339        0.7935541626888677    
    0.2026869577440354        0.7993810830070305    
    0.2111322476500369        0.8053682606126185    
    0.2195775375560383        0.8115053766464240    
    0.2280228274620398        0.8177818348420897    
    0.2364681173680413        0.8241867813150645    
    0.2449134072740428        0.8307091253257721    
    0.2533586971800443        0.8373375609750913    
    0.2618039870860457        0.8440605897811718    
    0.2702492769920472        0.8508665440776230    
    0.2786945668980487        0.8577436111644515    
    0.2871398568040501        0.8646798581347528    
    0.2955851467100516        0.8716632572923394    
    0.3040304366160531        0.8786817120681737    
    0.3124757265220546        0.8857230833368918    
    0.3209210164280560        0.8927752160288307    
    0.3293663063340576        0.8998259659279979    
    0.3378115962400590        0.9068632265423042    
    0.3462568861460605        0.9138749559292878    
    0.3547021760520619        0.9208492033584498    
    0.3631474659580634        0.9277741356902838    
    0.3715927558640649        0.9346380633521512    
    0.3800380457700664        0.9414294657922571    
    0.3884833356760679        0.9481370162952567    
    0.3969286255820693        0.9547496060462761    
    0.4053739154880708        0.9612563673345380    
    0.4138192053940723        0.9676466957930887    
    0.4222644953000738        0.9739102715774722    
    0.4307097852060752        0.9800370793933668    
    0.4391550751120767        0.9860174272912149    
    0.4476003650180782        0.9918419641546232    
    0.4560456549240797        0.9975016958186593    
    0.4644909448300811         1.002987999764085    
    0.4729362347360826         1.008292638343882    
    0.4813815246420841         1.013407770509073    
    0.4898268145480856         1.018325962011654    
    0.4982721044540870         1.023040194073394    
    0.5067173943600886         1.027543870520114    
    0.5151626842660900         1.031830823391761    
    0.5236079741720915         1.035895317049080    
    0.5320532640780929         1.039732050807701    
    0.5404985539840944         1.043336160140071    
    0.5489438438900959         1.046703216494632    
    0.5573891337960973         1.049829225789949    
    0.5658344237020988         1.052710625649070    
    0.5742797136081003         1.055344281446071    
    0.5827250035141018         1.057727481242604    
    0.5911702934201033         1.059857929697078    
    0.5996155833261048         1.061733741033072    
    0.6080608732321062         1.063353431156342    
    0.6165061631381077         1.064715909011724    
    0.6249514530441092         1.065820467272024    
    0.6333967429501106         1.066666772450742    
    0.6418420328561121         1.067254854529366    
    0.6502873227621135         1.067585096187778    
    0.6587326126681151         1.067658221723256    
    0.6671779025741166         1.067475285739708    
    0.6756231924801180         1.067037661684010    
    0.6840684823861195         1.066347030301036    
    0.6925137722921210         1.065405368072847    
    0.7009590621981224         1.064214935701085    
    0.7094043521041239         1.062778266684580    
    0.7178496420101254         1.061098156036938    
    0.7262949319161268         1.059177649181350    
    0.7347402218221284         1.057020031052236    
    0.7431855117281299         1.054628815425734    
    0.7516308016341313         1.052007734493467    
    0.7600760915401328         1.049160728686707    
    0.7685213814461342         1.046091936751028    
    0.7769666713521357         1.042805686064842    
    0.7854119612581372         1.039306483189089    
    0.7938572511641386         1.035599004629707    
    0.8023025410701401         1.031688087789502    
    0.8107478309761416         1.027578722081779    
    0.8191931208821431         1.023276040174478    
    0.8276384107881446         1.018785309330821    
    0.8360837006941461         1.014111922810462    
    0.8445289906001475         1.009261391294028    
    0.8529742805061490         1.004239334325802    
    0.8614195704121504        0.9990514717169031    
    0.8698648603181519        0.9937036144902152    
    0.8783101502241534        0.9882016564287066    
    0.8867554401301548        0.9825515649338223    
    0.8952007300361564        0.9767593718494681    
    0.9036460199421579        0.9708311640853614    
    0.9120913098481593        0.9647730740214873    
    0.9205365997541608        0.9585912696807826    
    0.9289818896601623        0.9522919446628382    
    0.9374271795661637        0.9458813078374237    
    0.9458724694721652        0.9393655728028658    
    0.9543177593781667        0.9327509471207248    
    0.9627630492841681        0.9260436213446277    
    0.9712083391901697        0.9192497578675335    
    0.9796536290961712        0.9123754796179416    
    0.9880989190021726        0.9054268586415869    
    0.9965442089081741        0.8984099046108567    
     1.004989498814176        0.8913305533094558    
     1.013434788720177        0.8841946551446536    
     1.021880078626179        0.8770079637436714    
     1.030325368532180        0.8697761246944105    
     1.038770658438182        0.8625046644936442    
     1.047215948344183        0.8551989797679904    
     1.055661238250184        0.8478643268344518    
     1.064106528156186        0.8405058116671335    
     1.072551818062187        0.8331283788021033    
     1.080997107968189        0.8257368021271605    
     1.089442397874190        0.8183356798996955    
     1.097887687780192        0.8109294253930323    
     1.106332977686193        0.8035222598582603    
     1.114778267592195        0.7961182062814701    
     1.123223557498196        0.7887210839701976    
     1.131668847404198        0.7813345040132248    
     1.140114137310199        0.7739618656518518    
     1.148559427216201        0.7666063535942407    
     1.157004717122202        0.7592709362974616    
     1.165450007028204        0.7519583652324722    
     1.173895296934205        0.7446711749895262    
     1.182340586840207        0.7374116849499384    
     1.190785876746208        0.7301820027095470    
     1.199231166652210        0.7229840222909418    
     1.207676456558211        0.7158194291176149    
     1.216121746464212        0.7086897322792962    
     1.224567036370214        0.7015963102100267    
     1.233012326276215        0.6945404527338667    
     1.241457616182217        0.6875233788752828    
     1.249902906088218        0.6805462333701338    
     1.258348195994220        0.6736100877413101    
     1.266793485900221        0.6667159449782919    
     1.275238775806223        0.6598647423313047    
     1.283684065712224        0.6530573539493248    
     1.292129355618226        0.6462945935264515    
     1.300574645524227        0.6395772168447810    
     1.309019935430229        0.6329059242192973    
     1.317465225336230        0.6262813628491044    
     1.325910515242232        0.6197041290785105    
     1.334355805148233        0.6131747705713483    
     1.342801095054235        0.6066937884018028    
     1.351246384960236        0.6002616390648551    
     1.359691674866238        0.5938787364093960    
     1.368136964772239        0.5875454534968733    
     1.376582254678240        0.5812621243882884    
     1.385027544584242        0.5750290458622263    
     1.393472834490243        0.5688464790664812    
     1.401918124396245        0.5627146511057884    
     1.410363414302246        0.5566337565680635    
     1.418808704208248        0.5506039589914339    
     1.427253994114249        0.5446253922743146    
     1.435699284020251        0.5386981620306390    
     1.444144573926252        0.5328223468923142    
     1.452589863832254        0.5269979997608882    
     1.461035153738255        0.5212251490103227    
     1.469480443644257        0.5155037996427199    
     1.477925733550258        0.5098339343987637    
     1.486371023456260        0.5042155148245744    
     1.494816313362261        0.4986484822966206    
     1.503261603268263        0.4931327590062611    
     1.511706893174264        0.4876682489054349    
     1.520152183080266        0.4822548386149633    
     1.528597472986267        0.4768923982968625    
     1.537042762892268        0.4715807824920327    
     1.545488052798270        0.4663198309246167    
     1.553933342704271        0.4611093692742896    
     1.562378632610273        0.4559492099176822    
     1.570823922516274        0.4508391526401087    
     1.579269212422276        0.4457789853187127    
     1.587714502328277        0.4407684845781081    
     1.596159792234279        0.4358074164195614    
     1.604605082140280        0.4308955368247063    
     1.613050372046282        0.4260325923347539    
     1.621495661952283        0.4212183206061309    
     1.629940951858285        0.4164524509434296    
     1.638386241764286        0.4117347048105299    
     1.646831531670288        0.4070647963207281    
     1.655276821576289        0.4024424327066542    
     1.663722111482291        0.3978673147707554    
     1.672167401388292        0.3933391373170779    
     1.680612691294294        0.3888575895650579    
     1.689057981200295        0.3844223555460073    
     1.697503271106297        0.3800331144829483    
     1.705948561012298        0.3756895411544349    
     1.714393850918299        0.3713913062429680    
     1.722839140824301        0.3671380766685941    
     1.731284430730302        0.3629295159082511    
     1.739729720636304        0.3587652843014065    
     1.748175010542305        0.3546450393425101    
     1.756620300448307        0.3505684359607686    
     1.765065590354308        0.3465351267877279    
     1.773510880260310        0.3425447624131266    
     1.781956170166311        0.3385969916294757    
     1.790401460072313        0.3346914616657964    
     1.798846749978314        0.3308278184109278    
     1.807292039884316        0.3270057066268193    
     1.815737329790317        0.3232247701521802    
     1.824182619696319        0.3194846520968672    
     1.832627909602320        0.3157849950273640    
     1.841073199508322        0.3121254411437016    
     1.849518489414323        0.3085056324481515    
     1.857963779320325        0.3049252109060046    
     1.866409069226326        0.3013838185987537    
     1.874854359132327        0.2978810978699688    
     1.883299649038329        0.2944166914641539    
     1.891744938944330        0.2909902426588562    
     1.900190228850332        0.2876013953902988    
     1.908635518756333        0.2842497943727832    
     1.917080808662335        0.2809350852121136    
     1.925526098568336        0.2776569145132716    
     1.933971388474338        0.2744149299825784    
     1.942416678380339        0.2712087805245508    
     1.950861968286341        0.2680381163336729    
     1.959307258192342        0.2649025889812759    
     1.967752548098344        0.2618018514977277    
     1.976197838004345        0.2587355584501199    
     1.984643127910347        0.2557033660156249    
     1.993088417816348        0.2527049320507070    
     2.001533707722349        0.2497399161563488    
     2.009978997628351        0.2468079797394537    
     2.018424287534353        0.2439087860705853    
     2.026869577440354        0.2410420003381822    
     2.035314867346356        0.2382072896994020    
     2.043760157252357        0.2354043233277275    
     2.052205447158359        0.2326327724574679    
     2.060650737064360        0.2298923104252873    
     2.069096026970362        0.2271826127088744    
     2.077541316876363        0.2245033569628891    
     2.085986606782364        0.2218542230522655    
     2.094431896688366        0.2192348930830226    
     2.102877186594367        0.2166450514306697    
     2.111322476500369        0.2140843847663076    
     2.119767766406370        0.2115525820805135    
     2.128213056312372        0.2090493347051209    
     2.136658346218373        0.2065743363329725    
     2.145103636124375        0.2041272830357459    
     2.153548926030376        0.2017078732799190    
     2.161994215936378        0.1993158079409727    
     2.170439505842379        0.1969507903158923    
     2.178884795748381        0.1946125261340573    
     2.187330085654382        0.1923007235665769    
     2.195775375560383        0.1900150932341526    
     2.204220665466385        0.1877553482135252    
     2.212665955372386        0.1855212040425731    
     2.221111245278388        0.1833123787241255    
     2.229556535184389        0.1811285927285445    
     2.238001825090391        0.1789695689951381    
     2.246447114996392        0.1768350329324531    
     2.254892404902394        0.1747247124175046    
     2.263337694808395        0.1726383377939913    
     2.271782984714397        0.1705756418695416    
     2.280228274620398        0.1685363599120453    
     2.288673564526400        0.1665202296451029    
     2.297118854432401        0.1645269912426495    
     2.305564144338403        0.1625563873227849    
     2.314009434244404        0.1606081629408505    
     2.322454724150406        0.1586820655817979    
     2.330900014056407        0.1567778451518769    
     2.339345303962409        0.1548952539696834    
     2.347790593868410        0.1530340467566009    
     2.356235883774412        0.1511939806266662    
     2.364681173680413        0.1493748150758896    
     2.373126463586415        0.1475763119710647    
     2.381571753492416        0.1457982355380893    
     2.390017043398418        0.1440403523498304    
     2.398462333304419        0.1423024313135589    
     2.406907623210421        0.1405842436579767    
     2.415352913116422        0.1388855629198630    
     2.423798203022423        0.1372061649303634    
     2.432243492928425        0.1355458278009441    
     2.440688782834426        0.1339043319090282    
     2.449134072740428        0.1322814598833446    
     2.457579362646429        0.1306769965889988    
     2.466024652552431        0.1290907291122913    
     2.474469942458432        0.1275224467452987    
     2.482915232364434        0.1259719409702385    
     2.491360522270435        0.1244390054436273    
     2.499805812176437        0.1229234359802577    
     2.508251102082438        0.1214250305370013    
     2.516696391988440        0.1199435891964577    
     2.525141681894441        0.1184789141504604    
     2.533586971800442        0.1170308096834540    
     2.542032261706444        0.1155990821557586    
     2.550477551612445        0.1141835399867271    
     2.558922841518447        0.1127839936378142    
     2.567368131424448        0.1114002555955638    
     2.575813421330450        0.1100321403545281    
     2.584258711236451        0.1086794644001285    
     2.592704001142453        0.1073420461914642    
     2.601149291048454        0.1060197061440846    
     2.609594580954456        0.1047122666127301    
     2.618039870860457        0.1034195518740506    
     2.626485160766459        0.1021413881093103    
     2.634930450672460        0.1008776033870865    
     2.643375740578462        0.9962802764596941E-01
     2.651821030484463        0.9839249267727217E-01
     2.660266320390465        0.9717083210775386E-01
     2.668711610296466        0.9596288138236712E-01
     2.677156900202468        0.9476847774703043E-01
     2.685602190108469        0.9358746023143709E-01
     2.694047480014471        0.9241966963190210E-01
     2.702492769920472        0.9126494849425322E-01
     2.710938059826474        0.9012314109677444E-01
     2.719383349732475        0.8899409343319903E-01
     2.727828639638477        0.8787765319576603E-01
     2.736273929544478        0.8677366975833749E-01
     2.744719219450479        0.8568199415958334E-01
     2.753164509356481        0.8460247908623832E-01
     2.761609799262482        0.8353497885643166E-01
     2.770055089168484        0.8247934940309655E-01
     2.778500379074485        0.8143544825746048E-01
     2.786945668980487        0.8040313453261876E-01
     2.795390958886488        0.7938226890719770E-01
     2.803836248792490        0.7837271360910457E-01
     2.812281538698491        0.7737433239937387E-01
     2.820726828604493        0.7638699055610401E-01
     2.829172118510494        0.7541055485849446E-01
     2.837617408416496        0.7444489357098075E-01
     2.846062698322497        0.7348987642747022E-01
     2.854507988228498        0.7254537461568125E-01
     2.862953278134500        0.7161126076158658E-01
     2.871398568040501        0.7068740891396305E-01
     2.879843857946503        0.6977369452904877E-01
     2.888289147852504        0.6886999445530874E-01
     2.896734437758506        0.6797618691831080E-01
     2.905179727664507        0.6709215150571350E-01
     2.913625017570509        0.6621776915236469E-01
     2.922070307476510        0.6535292212551413E-01
     2.930515597382512        0.6449749401014003E-01
     2.938960887288514        0.6365136969438992E-01
     2.947406177194515        0.6281443535513735E-01
     2.955851467100516        0.6198657844365345E-01
     2.964296757006518        0.6116768767139590E-01
     2.972742046912519        0.6035765299591490E-01
     2.981187336818521        0.5955636560687462E-01
     2.989632626724522        0.5876371791219420E-01
     2.998077916630524        0.5797960352430550E-01
     3.006523206536525        0.5720391724652802E-01
     3.014968496442527        0.5643655505956265E-01
     3.023413786348528        0.5567741410810444E-01
     3.031859076254530        0.5492639268757023E-01
     3.040304366160531        0.5418339023094741E-01
     3.048749656066533        0.5344830729575940E-01
     3.057194945972534        0.5272104555114798E-01
     3.065640235878536        0.5200150776507438E-01
     3.074085525784537        0.5128959779163728E-01
     3.082530815690538        0.5058522055850739E-01
     3.090976105596540        0.4988828205447918E-01
     3.099421395502541        0.4919868931713868E-01
     3.107866685408543        0.4851635042064770E-01
     3.116311975314544        0.4784117446364317E-01
     3.124757265220546        0.4717307155725153E-01
     3.133202555126547        0.4651195281321836E-01
     3.141647845032549        0.4585773033215153E-01
     3.150093134938550        0.4521031719187822E-01
     3.158538424844552        0.4456962743591521E-01
     3.166983714750553        0.4393557606205117E-01
     3.175429004656555        0.4330807901104132E-01
     3.183874294562556        0.4268705315541332E-01
     3.192319584468557        0.4207241628838335E-01
     3.200764874374559        0.4146408711288305E-01
     3.209210164280560        0.4086198523069470E-01
     3.217655454186562        0.4026603113169589E-01
     3.226100744092563        0.3967614618321212E-01
     3.234546033998565        0.3909225261947555E-01
     3.242991323904566        0.3851427353119169E-01
     3.251436613810568        0.3794213285521097E-01
     3.259881903716570        0.3737575536430547E-01
     3.268327193622571        0.3681506665704975E-01
     3.276772483528573        0.3625999314780542E-01
     3.285217773434574        0.3571046205680801E-01
     3.293663063340575        0.3516640140035623E-01
     3.302108353246577        0.3462773998110177E-01
     3.310553643152578        0.3409440737843932E-01
     3.318998933058580        0.3356633393899688E-01
     3.327444222964581        0.3304345076722361E-01
     3.335889512870583        0.3252568971607576E-01
     3.344334802776584        0.3201298337780094E-01
     3.352780092682586        0.3150526507481578E-01
     3.361225382588587        0.3100246885068162E-01
     3.369670672494589        0.3050452946117333E-01
     3.378115962400590        0.3001138236544147E-01
     3.386561252306592        0.2952296371726825E-01
     3.395006542212593        0.2903921035641460E-01
     3.403451832118594        0.2856005980005862E-01
     3.411897122024596        0.2808545023432442E-01
     3.420342411930597        0.2761532050589978E-01
     3.428787701836599        0.2714961011374315E-01
     3.437232991742600        0.2668825920087769E-01
     3.445678281648602        0.2623120854627225E-01
     3.454123571554603        0.2577839955680892E-01
     3.462568861460605        0.2532977425933465E-01
     3.471014151366606        0.2488527529279800E-01
     3.479459441272608        0.2444484590046977E-01
     3.487904731178609        0.2400842992224437E-01
     3.496350021084611        0.2357597178702529E-01
     3.504795310990612        0.2314741650518983E-01
     3.513240600896613        0.2272270966113476E-01
     3.521685890802615        0.2230179740590084E-01
     3.530131180708616        0.2188462644987611E-01
     3.538576470614618        0.2147114405557646E-01
     3.547021760520619        0.2106129803050341E-01
     3.555467050426621        0.2065503672007716E-01
     3.563912340332623        0.2025230900064628E-01
     3.572357630238624        0.1985306427256952E-01
     3.580802920144626        0.1945725245337331E-01
     3.589248210050627        0.1906482397098064E-01
     3.597693499956629        0.1867572975701268E-01
     3.606138789862630        0.1828992124016093E-01
     3.614584079768631        0.1790735033963012E-01
     3.623029369674633        0.1752796945865078E-01
     3.631474659580634        0.1715173147805998E-01
     3.639919949486636        0.1677858974995134E-01
     3.648365239392637        0.1640849809139050E-01
     3.656810529298639        0.1604141077819894E-01
     3.665255819204640        0.1567728253880227E-01
     3.673701109110642        0.1531606854814395E-01
     3.682146399016643        0.1495772442166341E-01
     3.690591688922645        0.1460220620933671E-01
     3.699036978828646        0.1424947038978181E-01
     3.707482268734648        0.1389947386442352E-01
     3.715927558640649        0.1355217395172182E-01
     3.724372848546651        0.1320752838145925E-01
     3.732818138452652        0.1286549528908905E-01
     3.741263428358653        0.1252603321014182E-01
     3.749708718264655        0.1218910107469076E-01
     3.758154008170656        0.1185465820187533E-01
     3.766599298076658        0.1152266429448040E-01
     3.775044587982659        0.1119307943357348E-01
     3.783489877888661        0.1086586407319624E-01
     3.791935167794662        0.1054097903511165E-01
     3.800380457700664        0.1021838550360526E-01
     3.808825747606665        0.9898045020339493E-02
     3.817271037512667        0.9579919479323792E-02
     3.825716327418668        0.9263971133793434E-02
     3.834161617324670        0.8950162901537344E-02
     3.842606907230671        0.8638460629682661E-02
     3.851052197136672        0.8328840133351868E-02
     3.859497487042674        0.8021299305491680E-02
     3.867942776948676        0.7715871904740205E-02
     3.876388066854677        0.7412638946426113E-02
     3.884833356760679        0.7111735347222549E-02
     3.893278646666680        0.6813351424011122E-02
     3.901723936572682        0.6517730035856881E-02
     3.910169226478683        0.6225160594758617E-02
     3.918614516384685        0.5935971154762293E-02
     3.927059806290686        0.5650519576526373E-02
     3.935505096196688        0.5369184506134073E-02
     3.943950386102689        0.5092356672512242E-02
     3.952395676008690        0.4820430820558630E-02
     3.960840965914692        0.4553798458306409E-02
     3.969286255820693        0.4292841498891076E-02
     3.977731545726695        0.4037926812520182E-02
     3.986176835632696        0.3789401661581381E-02
     3.994622125538698        0.3547589966600541E-02
     4.003067415444699        0.3312789336759980E-02
     4.011512705350700        0.3085268792322095E-02
     4.019957995256703        0.2865267104887775E-02
     4.028403285162704        0.2652991683078510E-02
     4.036848575068706        0.2448617934691617E-02
     4.045293864974707        0.2252289040761595E-02
     4.053739154880708        0.2064116081682850E-02
     4.062184444786710        0.1884178460191645E-02
     4.070629734692711        0.1712524570266862E-02
     4.079075024598713        0.1549172664625302E-02
     4.087520314504714        0.1394111876182968E-02
     4.095965604410716        0.1247303350249332E-02
     4.104410894316717        0.1108681443748645E-02
     4.112856184222719        0.9781549444351845E-03
     4.121301474128720        0.8556082551554502E-03
     4.129746764034722        0.7409024724553116E-03
     4.138192053940723        0.6338762589137092E-03
     4.146637343846725        0.5343463515123297E-03
     4.155082633752726        0.4421074357399926E-03
     4.163527923658727        0.3569308800901360E-03
     4.171973213564729        0.2785612948582208E-03
     4.180418503470730        0.2067085456142704E-03
     4.188863793376732        0.1410289661542235E-03
     4.197309083282733        0.8107600352712394E-04
     4.205754373188735        0.2612160274602332E-04
     4.214199663094736         0.000000000000000    
  0  2  2  0  0.000000   #orbital l, n, z, is_polarized, population
 500    0.5415609314330591E-02     2.702389047850965     # npts, delta, cutoff
     0.000000000000000        0.7265789124883340    
    0.5415609314330591E-02    0.7266674754494368    
    0.1083121862866118E-01    0.7269623595768379    
    0.1624682794299177E-01    0.7274536263212908    
    0.2166243725732236E-01    0.7281409429980918    
    0.2707804657165296E-01    0.7290238494352687    
    0.3249365588598355E-01    0.7301017551345270    
    0.3790926520031414E-01    0.7313739390622267    
    0.4332487451464473E-01    0.7328395498144257    
    0.4874048382897532E-01    0.7344976059067025    
    0.5415609314330591E-01    0.7363469961402992    
    0.5957170245763650E-01    0.7383864800329037    
    0.6498731177196709E-01    0.7406146883116467    
    0.7040292108629768E-01    0.7430301234689899    
    0.7581853040062828E-01    0.7456311603832797    
    0.8123413971495887E-01    0.7484160470063709    
    0.8664974902928946E-01    0.7513829051210005    
    0.9206535834362005E-01    0.7545297311708222    
    0.9748096765795064E-01    0.7578543971661343    
    0.1028965769722812        0.7613546516684553    
    0.1083121862866118        0.7650281208571159    
    0.1137277956009424        0.7688723096811269    