<preamble>

<basis_specs>
===============================================================================
Pd                   Z=  46    Mass=  106.42        Charge= 0.17977+309
Lmxo=2 Lmxkb= 2    BasisType=split      Semic=T
L=0  Nsemic=1  Cnfigmx=5
          i=1  nzeta=1  polorb=0  (4s)  (semicore shell)
            splnorm:   0.15000    
               vcte:    40.000    
               rinn:    2.4151    
               qcoe:    0.0000    
               qyuk:    0.0000    
               qwid:   0.10000E-01
                rcs:    2.6835    
            lambdas:    1.0000    
          i=2  nzeta=2  polorb=0  (5s)  (to be polarized non-perturbatively)
            splnorm:   0.15000    
               vcte:    40.000    
               rinn:    7.0300    
               qcoe:    0.0000    
               qyuk:    0.0000    
               qwid:   0.10000E-01
                rcs:    7.8111      5.6072    
            lambdas:    1.0000      1.0000    
L=1  Nsemic=1  Cnfigmx=5
          i=1  nzeta=1  polorb=0  (4p)  (semicore shell)
            splnorm:   0.15000    
               vcte:    40.000    
               rinn:    2.7544    
               qcoe:    0.0000    
               qyuk:    0.0000    
               qwid:   0.10000E-01
                rcs:    3.0574    
            lambdas:    1.0000    
          i=2  nzeta=1  polorb=0  (5p)  (non-perturbative polarization shell)
            splnorm:   0.15000    
               vcte:    40.000    
               rinn:    7.0371    
               qcoe:    0.0000    
               qyuk:    0.0000    
               qwid:   0.10000E-01
                rcs:    7.8111    
            lambdas:    1.0000    
L=2  Nsemic=0  Cnfigmx=4
          i=1  nzeta=2  polorb=0  (4d)
            splnorm:   0.15000    
               vcte:    40.000    
               rinn:    4.7855    
               qcoe:    0.0000    
               qyuk:    0.0000    
               qwid:   0.10000E-01
                rcs:    5.3172      3.3698    
            lambdas:    1.0000      1.0000    
-------------------------------------------------------------------------------
L=0  Nkbl=2  erefs: 0.17977+309 0.17977+309
L=1  Nkbl=2  erefs: 0.17977+309 0.17977+309
L=2  Nkbl=1  erefs: 0.17977+309
===============================================================================
</basis_specs>

<pseudopotential_header>
 Pd pw nrl pcec
 ONCVPSP-3.2018-03-09Hamann's oncvpsp                        
 4s 2.00  r= 1.41/4p 6.00  r= 1.46/4d10.00  r= 1.55/                    4s:4p:4d:
</pseudopotential_header>
</preamble>
Pd                            # Symbol
Pd                            # Label
   46                         # Atomic number
     18.0000000000                             # Valence charge
     106.420000000        # Mass 
     363.143600242        # Self energy 
   2   7                      # Lmax for basis, no. of nl orbitals 
   2   6                      # Lmax for projectors, no. of nl KB projectors
# PAOs:__________________________
  0  4  1  0  2.000000   #orbital l, n, z, is_polarized, population
 500    0.5377692631784396E-02     2.683468623260413     # npts, delta, cutoff
     0.000000000000000        0.8701440661299149    
    0.5377692631784396E-02    0.8702402135501206    
    0.1075538526356879E-01    0.8706066747436590    
    0.1613307789535319E-01    0.8712171611720732    
    0.2151077052713758E-01    0.8720711891419242    
    0.2688846315892198E-01    0.8731680966111864    
    0.3226615579070637E-01    0.8745070356602239    
    0.3764384842249077E-01    0.8760869720584997    
    0.4302154105427516E-01    0.8779066858574015    
    0.4839923368605956E-01    0.8799647723340155    
    0.5377692631784396E-01    0.8822596431499310    
    0.5915461894962835E-01    0.8847895276871373    
    0.6453231158141275E-01    0.8875524745474076    
    0.6991000421319714E-01    0.8905463532089684    
    0.7528769684498154E-01    0.8937688558368061    
    0.8066538947676594E-01    0.8972174992438717    
    0.8604308210855033E-01    0.9008896270007840    
    0.9142077474033472E-01    0.9047824116917070    
    0.9679846737211911E-01    0.9088928573140457    
    0.1021761600039035        0.9132178018195110    
    0.1075538526356879        0.9177539197940213    
    0.1129315452674723        0.9224977252737651    
    0.1183092378992567        0.9274455746946613    
    0.1236869305310411        0.9325936699722935    
    0.1290646231628255        0.9379380617092983    
    0.1344423157946099        0.9434746525270653    
    0.1398200084263943        0.9491992005184750    
    0.1451977010581787        0.9551073228183032    
    0.1505753936899631        0.9611944992877983    
    0.1559530863217475        0.9674560763098262    
    0.1613307789535319        0.9738872706908855    
    0.1667084715853163        0.9804831736661941    
    0.1720861642171007        0.9872387550039318    
    0.1774638568488850        0.9941488672046621    
    0.1828415494806694         1.001208249791838    
    0.1882192421124538         1.008411533689232    
    0.1935969347442382         1.015753245681053    
    0.1989746273760226         1.023227812950420    
    0.2043523200078070         1.030829567691799    
    0.2097300126395914         1.038552751792966    
    0.2151077052713758         1.046391521581960    
    0.2204853979031602         1.054339952634457    
    0.2258630905349446         1.062392044636957    
    0.2312407831667290         1.070541726301084    
    0.2366184757985134         1.078782860324317    
    0.2419961684302978         1.087109248392374    
    0.2473738610620822         1.095514636218504    
    0.2527515536938666         1.103992718614847    
    0.2581292463256510         1.112537144591054    
    0.2635069389574354         1.121141522475319    
    0.2688846315892198         1.129799425052972    
    0.2742623242210042         1.138504394717772    
    0.2796400168527886         1.147249948631034    
    0.2850177094845729         1.156029583883746    
    0.2903954021163573         1.164836782656826    
    0.2957730947481417         1.173665017374687    
    0.3011507873799262         1.182507755847305    
    0.3065284800117106         1.191358466395997    
    0.3119061726434950         1.200210622958173    
    0.3172838652752794         1.209057710166325    
    0.3226615579070637         1.217893228396586    
    0.3280392505388481         1.226710698782225    
    0.3334169431706325         1.235503668187495    
    0.3387946358024169         1.244265714137318    
    0.3441723284342013         1.252990449698320    
    0.3495500210659857         1.261671528306839    
    0.3549277136977701         1.270302648539565    
    0.3603054063295545         1.278877558822542    
    0.3656830989613389         1.287390062074376    
    0.3710607915931233         1.295834020279544    
    0.3764384842249077         1.304203358987786    
    0.3818161768566921         1.312492071735681    
    0.3871938694884764         1.320694224386564    
    0.3925715621202609         1.328803959385085    
    0.3979492547520453         1.336815499922783    
    0.4033269473838297         1.344723154011139    
    0.4087046400156141         1.352521318458755    
    0.4140823326473985         1.360204482749330    
    0.4194600252791829         1.367767232817288    
    0.4248377179109672         1.375204254717987    
    0.4302154105427516         1.382510338189610    
    0.4355931031745360         1.389680380103916    
    0.4409707958063204         1.396709387803192    
    0.4463484884381048         1.403592482320865    
    0.4517261810698892         1.410324901483379    
    0.4571038737016736         1.416902002891046    
    0.4624815663334580         1.423319266775763    
    0.4678592589652424         1.429572298733600    
    0.4732369515970268         1.435656832330413    
    0.4786146442288112         1.441568731578767    
    0.4839923368605956         1.447303993284630    
    0.4893700294923800         1.452858749262402    
    0.4947477221241644         1.458229268417043    
    0.5001254147559487         1.463411958692160    
    0.5055031073877332         1.468403368883073    
    0.5108808000195175         1.473200190314091    
    0.5162584926513020         1.477799258379273    
    0.5216361852830864         1.482197553946175    
    0.5270138779148708         1.486392204622218    
    0.5323915705466552         1.490380485883453    
    0.5377692631784395         1.494159822065638    
    0.5431469558102240         1.497727787217707    
    0.5485246484420083         1.501082105817858    
    0.5539023410737928         1.504220653352627    
    0.5592800337055771         1.507141456759455    
    0.5646577263373616         1.509842694733398    
    0.5700354189691459         1.512322697898808    
    0.5754131116009303         1.514579948846885    
    0.5807908042327147         1.516613082040201    
    0.5861684968644991         1.518420883585407    
    0.5915461894962835         1.520002290875471    
    0.5969238821280679         1.521356392102915    
    0.6023015747598524         1.522482425645671    
    0.6076792673916367         1.523379779327293    
    0.6130569600234211         1.524047989553379    
    0.6184346526552055         1.524486740326171    
    0.6238123452869899         1.524695862139464    
    0.6291900379187743         1.524675330755992    
    0.6345677305505587         1.524425265869647    
    0.6399454231823430         1.523945929654940    
    0.6453231158141275         1.523237725206250    
    0.6507008084459118         1.522301194869480    
    0.6560785010776963         1.521137018468862    
    0.6614561937094806         1.519746011431728    
    0.6668338863412651         1.518129122814128    
    0.6722115789730494         1.516287433230338    
    0.6775892716048338         1.514222152689284    
    0.6829669642366182         1.511934618341044    
    0.6883446568684026         1.509426292136635    
    0.6937223495001871         1.506698758404388    
    0.6991000421319714         1.503753721346218    
    0.7044777347637559         1.500593002457220    
    0.7098554273955402         1.497218537872018    
    0.7152331200273246         1.493632375641387    
    0.7206108126591090         1.489836672942658    
    0.7259885052908934         1.485833693227512    
    0.7313661979226778         1.481625803310757    
    0.7367438905544622         1.477215470403717    
    0.7421215831862465         1.472605259095929    
    0.7474992758180310         1.467797828288773    
    0.7528769684498153         1.462795928084776    
    0.7582546610815998         1.457602396672336    
    0.7636323537133841         1.452220157525046    
    0.7690100463451686         1.446652214788748    
    0.7743877389769529         1.440901651510782    
    0.7797654316087373         1.434971625845805    
    0.7851431242405218         1.428865367761267    
    0.7905208168723061         1.422586175719747    
    0.7958985095040906         1.416137413346350    
    0.8012762021358749         1.409522506084807    
    0.8066538947676594         1.402744937845802    
    0.8120315873994437         1.395808247651087    
    0.8174092800312281         1.388716026276834    
    0.8227869726630125         1.381471912899693    
    0.8281646652947969         1.374079591748919    
    0.8335423579265813         1.366542788767924    
    0.8389200505583657         1.358865268288515    
    0.8442977431901501         1.351050829721031    
    0.8496754358219345         1.343103304263549    
    0.8550531284537188         1.335026551633213    
    0.8604308210855033         1.326824456822732    
    0.8658085137172877         1.318500926884932    
    0.8711862063490721         1.310059887748279    
    0.8765638989808565         1.301505281066097    
    0.8819415916126409         1.292841061102211    
    0.8873192842444253         1.284071191655604    
    0.8926969768762096         1.275199643026610    
    0.8980746695079941         1.266230389027082    
    0.9034523621397784         1.257167404036851    
    0.9088300547715629         1.248014660108740    
    0.9142077474033472         1.238776124124261    
    0.9195854400351317         1.229455755002047    
    0.9249631326669160         1.220057500960971    
    0.9303408252987004         1.210585296839791    
    0.9357185179304848         1.201043061475066    
    0.9410962105622692         1.191434695139002    
    0.9464739031940537         1.181764077038734    
    0.9518515958258380         1.172035062878511    
    0.9572292884576225         1.162251482486103    
    0.9626069810894068         1.152417137504635    
    0.9679846737211912         1.142535799151011    
    0.9733623663529756         1.132611206041905    
    0.9787400589847600         1.122647062088248    
    0.9841177516165444         1.112647034459021    
    0.9894954442483288         1.102614751615056    
    0.9948731368801131         1.092553801413435    
     1.000250829511897         1.082467729283010    
     1.005628522143682         1.072360036471423    
     1.011006214775466         1.062234178363937    
     1.016383907407251         1.052093562874284    
     1.021761600039035         1.041941548907618    
     1.027139292670820         1.031781444895606    
     1.032516985302604         1.021616507403560    
     1.037894677934388         1.011449939809444    
     1.043272370566173         1.001284891054489    
     1.048650063197957        0.9911244544650707    
     1.054027755829742        0.9809716666454142    
     1.059405448461526        0.9708295064406121    
     1.064783141093310        0.9607008939693532    
     1.070160833725095        0.9505886897256982    
     1.075538526356879        0.9404956937491488    
     1.080916218988663        0.9304246448621928    
     1.086293911620448        0.9203782199744379    
     1.091671604252232        0.9103590334523814    
     1.097049296884017        0.9003696365537948    
     1.102426989515801        0.8904125169256542    
     1.107804682147586        0.8804900981644751    
     1.113182374779370        0.8706047394378770    
     1.118560067411154        0.8607587351661238    
     1.123937760042939        0.8509543147623797    
     1.129315452674723        0.8411936424303283    
     1.134693145306507        0.8314788170178077    
     1.140070837938292        0.8218118719250482    
     1.145448530570076        0.8121947750660712    
     1.150826223201861        0.8026294288817950    
     1.156203915833645        0.7931176704033289    
     1.161581608465429        0.7836612713639681    
     1.166959301097214        0.7742619383583168    
     1.172336993728998        0.7649213130470143    
     1.177714686360783        0.7556409724054661    
     1.183092378992567        0.7464224290150243    
     1.188470071624351        0.7372671313950182    
     1.193847764256136        0.7281764643740404    
     1.199225456887920        0.7191517494989073    
     1.204603149519705        0.7101942454796942    
     1.209980842151489        0.7013051486692672    
     1.215358534783273        0.6924855935757244    
     1.220736227415058        0.6837366534061979    
     1.226113920046842        0.6750593406404458    
     1.231491612678627        0.6664546076327074    
     1.236869305310411        0.6579233472403093    
     1.242246997942195        0.6494663934775053    
     1.247624690573980        0.6410845221931135    
     1.253002383205764        0.6327784517704639    
     1.258380075837549        0.6245488438482732    
     1.263757768469333        0.6163963040610407    
     1.269135461101117        0.6083213827976079    
     1.274513153732902        0.6003245759765846    
     1.279890846364686        0.5924063258373219    
     1.285268538996470        0.5845670217452154    
     1.290646231628255        0.5768070010101169    
     1.296023924260039        0.5691265497166844    
     1.301401616891824        0.5615259035655541    
     1.306779309523608        0.5540052487242416    
     1.312157002155393        0.5465647226867439    
     1.317534694787177        0.5392044151408359    
     1.322912387418961        0.5319243688421254    
     1.328290080050746        0.5247245804939498    
     1.333667772682530        0.5176050016322743    
     1.339045465314314        0.5105655395147708    
     1.344423157946099        0.5036060580133159    
     1.349800850577883        0.4967263785092039    
     1.355178543209668        0.4899262807903968    
     1.360556235841452        0.4832055039501996    
     1.365933928473236        0.4765637472493989    
     1.371311621105021        0.4700006709144674    
     1.376689313736805        0.4635158973139008    
     1.382067006368590        0.4571090121189456    
     1.387444699000374        0.4507795654836259    
     1.392822391632158        0.4445270715835168    
     1.398200084263943        0.4383510084574438    
     1.403577776895727        0.4322508187421112    
     1.408955469527512        0.4262259135910056    
     1.414333162159296        0.4202756780449709    
     1.419710854791080        0.4143994767647645    
     1.425088547422865        0.4085966601555446    
     1.430466240054649        0.4028665700668119    
     1.435843932686434        0.3972085448971527    
     1.441221625318218        0.3916219216761826    
     1.446599317950002        0.3861060357057255    
     1.451977010581787        0.3806602195812340    
     1.457354703213571        0.3752838026870548    
     1.462732395845356        0.3699761120765679    
     1.468110088477140        0.3647364731051328    
     1.473487781108924        0.3595642100709754    
     1.478865473740709        0.3544586464569417    
     1.484243166372493        0.3494191052505981    
     1.489620859004278        0.3444449092747551    
     1.494998551636062        0.3395353815092513    
     1.500376244267846        0.3346898453981718    
     1.505753936899631        0.3299076251419684    
     1.511131629531415        0.3251880459760489    
     1.516509322163200        0.3205304344363203    
     1.521887014794984        0.3159341186121339    
     1.527264707426768        0.3113984283870863    
     1.532642400058553        0.3069226956680851    
     1.538020092690337        0.3025062546031246    
     1.543397785322121        0.2981484417881434    
     1.548775477953906        0.2938485964633783    
     1.554153170585690        0.2896060606995825    
     1.559530863217475        0.2854201795744745    
     1.564908555849259        0.2812903013397808    
     1.570286248481044        0.2772157775475091    
     1.575663941112828        0.2731959628524389    
     1.581041633744612        0.2692302156773311    
     1.586419326376397        0.2653178982865050    
     1.591797019008181        0.2614583768337196    
     1.597174711639965        0.2576510214791189    
     1.602552404271750        0.2538952064990684    
     1.607930096903534        0.2501903103890480    
     1.613307789535319        0.2465357159598716    
     1.618685482167103        0.2429308104274817    
     1.624063174798887        0.2393749854965696    
     1.629440867430672        0.2358676374382615    
     1.634818560062456        0.2324081671620993    
     1.640196252694241        0.2289959802825472    
     1.645573945326025        0.2256304871802234    
     1.650951637957810        0.2223111030580892    
     1.656329330589594        0.2190372479927784    
     1.661707023221378        0.2158083469812726    
     1.667084715853163        0.2126238299831096    
     1.672462408484947        0.2094831319583000    
     1.677840101116731        0.2063856929011414    
     1.683217793748516        0.2033309578700871    
     1.688595486380300        0.2003183770138461    
     1.693973179012085        0.1973474055938589    
     1.699350871643869        0.1944175040033168    
     1.704728564275653        0.1915281377828624    
     1.710106256907438        0.1886787776331200    
     1.715483949539222        0.1858688994241920    
     1.720861642171007        0.1830979842022510    
     1.726239334802791        0.1803655181933625    
     1.731617027434575        0.1776709928046581    
     1.736994720066360        0.1750139046229793    
     1.742372412698144        0.1723937554111070    
     1.747750105329928        0.1698100521016904    
     1.753127797961713        0.1672623067889776    
     1.758505490593497        0.1647500367184605    
     1.763883183225282        0.1622727642745182    
     1.769260875857066        0.1598300169661748    
     1.774638568488851        0.1574213274110468    
     1.780016261120635        0.1550462333175814    
     1.785393953752419        0.1527042774656646    
     1.790771646384204        0.1503950076856851    
     1.796149339015988        0.1481179768361333    
     1.801527031647773        0.1458727427798141    
     1.806904724279557        0.1436588683587422    
     1.812282416911341        0.1414759213677983    
     1.817660109543126        0.1393234745272096    
     1.823037802174910        0.1372011054539234    
     1.828415494806694        0.1351083966319355    
     1.833793187438479        0.1330449353816365    
     1.839170880070263        0.1310103138282326    
     1.844548572702048        0.1290041288693012    
     1.849926265333832        0.1270259821415292    
     1.855303957965617        0.1250754799866940    
     1.860681650597401        0.1231522334169328    
     1.866059343229185        0.1212558580793484    
     1.871437035860970        0.1193859742199997    
     1.876814728492754        0.1175422066473214    
     1.882192421124538        0.1157241846950143    
     1.887570113756323        0.1139315421844475    
     1.892947806388107        0.1121639173866139    
     1.898325499019892        0.1104209529836755    
     1.903703191651676        0.1087022960301309    
     1.909080884283460        0.1070075979136482    
     1.914458576915245        0.1053365143155919    
     1.919836269547029        0.1036887051712704    
     1.925213962178814        0.1020638346299465    
     1.930591654810598        0.1004615710146312    
     1.935969347442382        0.9888158678169066E-01
     1.941347040074167        0.9732355848029568E-01
     1.946724732705951        0.9578716671173776E-01
     1.952102425337735        0.9427209608863557E-01
     1.957480117969520        0.9277803519405657E-01
     1.962857810601304        0.9130467654057604E-01
     1.968235503233089        0.8985171652929493E-01
     1.973613195864873        0.8841885540883548E-01
     1.978990888496658        0.8700579723433788E-01
     1.984368581128442        0.8561224982647206E-01
     1.989746273760226        0.8423792473048572E-01
     1.995123966392011        0.8288253717530353E-01
     2.000501659023795        0.8154580603269641E-01
     2.005879351655580        0.8022745377653054E-01
     2.011257044287364        0.7892720644211861E-01
     2.016634736919148        0.7764479358568026E-01
     2.022012429550933        0.7637994824392784E-01
     2.027390122182717        0.7513240689379058E-01
     2.032767814814501        0.7390190941228766E-01
     2.038145507446286        0.7268819903656128E-01
     2.043523200078070        0.7149102232408172E-01
     2.048900892709855        0.7031012911303337E-01
     2.054278585341639        0.6914527248289111E-01
     2.059656277973423        0.6799620871519640E-01
     2.065033970605208        0.6686269725454144E-01
     2.070411663236992        0.6574450066976964E-01
     2.075789355868777        0.6464138461539867E-01
     2.081167048500561        0.6355311779327456E-01
     2.086544741132346        0.6247947191446230E-01
     2.091922433764130        0.6142022166138034E-01
     2.097300126395914        0.6037514465018215E-01
     2.102677819027698        0.5934402139339329E-01
     2.108055511659483        0.5832663526280792E-01
     2.113433204291268        0.5732277245264656E-01
     2.118810896923052        0.5633222194298405E-01
     2.124188589554836        0.5535477546344853E-01
     2.129566282186621        0.5439022745719480E-01
     2.134943974818405        0.5343837504515754E-01
     2.140321667450189        0.5249901799058557E-01
     2.145699360081974        0.5157195866385970E-01
     2.151077052713758        0.5065700200759839E-01
     2.156454745345543        0.4975395550205144E-01
     2.161832437977327        0.4886262913078478E-01
     2.167210130609111        0.4798283534665659E-01
     2.172587823240896        0.4711438903808922E-01
     2.177965515872680        0.4625710749563449E-01
     2.183343208504465        0.4541081037883500E-01
     2.188720901136249        0.4457531968338388E-01
     2.194098593768033        0.4375045970858023E-01
     2.199476286399818        0.4293605702508255E-01
     2.204853979031602        0.4213194044296282E-01
     2.210231671663387        0.4133794098005437E-01
     2.215609364295171        0.4055389183060189E-01
     2.220987056926955        0.3977962833420788E-01
     2.226364749558740        0.3901498794507527E-01
     2.231742442190524        0.3825981020154958E-01
     2.237120134822308        0.3751393669595563E-01
     2.242497827454093        0.3677721104472987E-01
     2.247875520085878        0.3604947885884839E-01
     2.253253212717662        0.3533058771454751E-01
     2.258630905349446        0.3462038712433774E-01
     2.264008597981230        0.3391872850830802E-01
     2.269386290613015        0.3322546516572043E-01
     2.274763983244799        0.3254045224689429E-01
     2.280141675876584        0.3186354672537544E-01
     2.285519368508368        0.3119460737039183E-01
     2.290897061140153        0.3053349471959330E-01
     2.296274753771937        0.2988007105207243E-01
     2.301652446403721        0.2923420036166568E-01
     2.307030139035505        0.2859574833053271E-01
     2.312407831667290        0.2796458230301295E-01
     2.317785524299075        0.2734057125975406E-01
     2.323163216930859        0.2672358579211535E-01
     2.328540909562643        0.2611349807683873E-01
     2.333918602194428        0.2551018185098891E-01
     2.339296294826212        0.2491351238715854E-01
     2.344673987457996        0.2432336646893599E-01
     2.350051680089781        0.2373962236663598E-01
     2.355429372721565        0.2316215981328616E-01
     2.360807065353350        0.2259085998087239E-01
     2.366184757985134        0.2202560545683668E-01
     2.371562450616918        0.2146628022082565E-01
     2.376940143248703        0.2091276962168795E-01
     2.382317835880487        0.2036496035471808E-01
     2.387695528512272        0.1982274043914486E-01
     2.393073221144056        0.1928599919586034E-01
     2.398450913775840        0.1875462722538766E-01
     2.403828606407625        0.1822851638608338E-01
     2.409206299039409        0.1770755977257479E-01
     2.414583991671194        0.1719165169442625E-01
     2.419961684302978        0.1668068765503438E-01
     2.425339376934762        0.1617456433074859E-01
     2.430717069566547        0.1567317955027864E-01
     2.436094762198331        0.1517643228668305E-01
     2.441472454830115        0.1468422296105656E-01
     2.446850147461900        0.1419645579614236E-01
     2.452227840093685        0.1371304618330126E-01
     2.457605532725469        0.1323393342556424E-01
     2.462983225357253        0.1275909536279126E-01
     2.468360917989037        0.1228856063953868E-01
     2.473738610620822        0.1182241614393739E-01
     2.479116303252606        0.1136080916377731E-01
     2.484493995884391        0.1090394504248741E-01
     2.489871688516175        0.1045208157722695E-01
     2.495249381147960        0.1000552139073645E-01
     2.500627073779744        0.9564603293332105E-02
     2.506004766411528        0.9129693387759688E-02
     2.511382459043313        0.8701176430032459E-02
     2.516760151675097        0.8279447768262321E-02
     2.522137844306882        0.7864906040273548E-02
     2.527515536938666        0.7457946711994213E-02
     2.532893229570450        0.7058956472669861E-02
     2.538270922202235        0.6668308461059617E-02
     2.543648614834019        0.6286358271812273E-02
     2.549026307465803        0.5913440677812859E-02
     2.554404000097588        0.5549866998494686E-02
     2.559781692729372        0.5195923043186791E-02
     2.565159385361157        0.4851867560570167E-02
     2.570537077992941        0.4517931128960229E-02
     2.575914770624725        0.4194315426502224E-02
     2.581292463256510        0.3881192824873648E-02
     2.586670155888294        0.3578706254271498E-02
     2.592047848520079        0.3286969290993202E-02
     2.597425541151863        0.3006066421438039E-02
     2.602803233783647        0.2736053437474557E-02
     2.608180926415432        0.2476957917234592E-02
     2.613558619047216        0.2228779741566710E-02
     2.618936311679001        0.1991491587998665E-02
     2.624314004310785        0.1765039328246775E-02
     2.629691696942569        0.1549342226754649E-02
     2.635069389574354        0.1344292786126679E-02
     2.640447082206138        0.1149755989624045E-02
     2.645824774837922        0.9655675054336100E-03
     2.651202467469707        0.7915300352577689E-03
     2.656580160101492        0.6274061355341990E-03
     2.661957852733276        0.4729037125880403E-03
     2.667335545365060        0.3276442490927897E-03
     2.672713237996845        0.1910819492217406E-03
     2.678090930628629        0.6222029873778100E-04
     2.683468623260413         0.000000000000000    
  0  5  1  0  1.000000   #orbital l, n, z, is_polarized, population
 500    0.1565357918124623E-01     7.811136011441871     # npts, delta, cutoff
     0.000000000000000        0.3727443635573296    
    0.1565357918124623E-01    0.3730853976823936    
    0.3130715836249247E-01    0.3741384122776998    