<preamble>

<basis_specs>
===============================================================================
Pt                   Z=  78    Mass=  195.08        Charge= 0.17977+309
Lmxo=2 Lmxkb= 3    BasisType=split      Semic=T
L=0  Nsemic=1  Cnfigmx=6
          i=1  nzeta=1  polorb=0  (5s)  (semicore shell)
            splnorm:   0.15000    
               vcte:    40.000    
               rinn:    2.3435    
               qcoe:    0.0000    
               qyuk:    0.0000    
               qwid:   0.10000E-01
                rcs:    2.6039    
            lambdas:    1.0000    
          i=2  nzeta=2  polorb=0  (6s)  (to be polarized non-perturbatively)
            splnorm:   0.15000    
               vcte:    40.000    
               rinn:    6.0495    
               qcoe:    0.0000    
               qyuk:    0.0000    
               qwid:   0.10000E-01
                rcs:    6.7217      4.7671    
            lambdas:    1.0000      1.0000    
L=1  Nsemic=1  Cnfigmx=6
          i=1  nzeta=1  polorb=0  (5p)  (semicore shell)
            splnorm:   0.15000    
               vcte:    40.000    
               rinn:    2.7766    
               qcoe:    0.0000    
               qyuk:    0.0000    
               qwid:   0.10000E-01
                rcs:    3.0820    
            lambdas:    1.0000    
          i=2  nzeta=1  polorb=0  (6p)  (non-perturbative polarization shell)
            splnorm:   0.15000    
               vcte:    40.000    
               rinn:    6.0556    
               qcoe:    0.0000    
               qyuk:    0.0000    
               qwid:   0.10000E-01
                rcs:    6.7217    
            lambdas:    1.0000    
L=2  Nsemic=0  Cnfigmx=5
          i=1  nzeta=2  polorb=0  (5d)
            splnorm:   0.15000    
               vcte:    40.000    
               rinn:    4.7000    
               qcoe:    0.0000    
               qyuk:    0.0000    
               qwid:   0.10000E-01
                rcs:    5.2222      3.3902    
            lambdas:    1.0000      1.0000    
-------------------------------------------------------------------------------
L=0  Nkbl=2  erefs: 0.17977+309 0.17977+309
L=1  Nkbl=2  erefs: 0.17977+309 0.17977+309
L=2  Nkbl=1  erefs: 0.17977+309
L=3  Nkbl=1  erefs: 0.17977+309
===============================================================================
</basis_specs>

<pseudopotential_header>
 Pt pw nrl pcec
 ONCVPSP-3.2018-03-09Hamann's oncvpsp                        
 5s 2.00  r= 1.46/5p 6.00  r= 1.46/5d 9.00  r= 1.46/5f 0.00  r= 1.92/   5s:5p:5d:6s:
</pseudopotential_header>
</preamble>
Pt                            # Symbol
Pt                            # Label
   78                         # Atomic number
     18.0000000000                             # Valence charge
     195.080000000        # Mass 
     358.846516196        # Self energy 
   2   7                      # Lmax for basis, no. of nl orbitals 
   3   8                      # Lmax for projectors, no. of nl KB projectors
# PAOs:__________________________
  0  5  1  0  2.000000   #orbital l, n, z, is_polarized, population
 500    0.5218165521435105E-02     2.603864595196117     # npts, delta, cutoff
     0.000000000000000        0.6842679213979418    
    0.5218165521435105E-02    0.6843808186394525    
    0.1043633104287021E-01    0.6847808431217390    
    0.1565449656430531E-01    0.6854472743583701    
    0.2087266208574042E-01    0.6863796490878000    
    0.2609082760717553E-01    0.6875773310382260    
    0.3130899312861063E-01    0.6890395048610228    
    0.3652715865004574E-01    0.6907651758241592    
    0.4174532417148084E-01    0.6927531703470674    
    0.4696348969291595E-01    0.6950021368298372    
    0.5218165521435106E-01    0.6975105466666291    
    0.5739982073578616E-01    0.7002766954125735    
    0.6261798625722126E-01    0.7032987040931478    
    0.6783615177865637E-01    0.7065745206510522    
    0.7305431730009147E-01    0.7101019215276321    
    0.7827248282152659E-01    0.7138785133766745    
    0.8349064834296169E-01    0.7179017349086567    
    0.8870881386439679E-01    0.7221688588636014    
    0.9392697938583190E-01    0.7266769941106639    
    0.9914514490726700E-01    0.7314230878725071    
    0.1043633104287021        0.7364039280724398    
    0.1095814759501372        0.7416161458022054    
    0.1147996414715723        0.7470562179082026    
    0.1200178069930074        0.7527204696938272    
    0.1252359725144425        0.7586050777355177    
    0.1304541380358776        0.7647060728100008    
    0.1356723035573127        0.7710193429301261    
    0.1408904690787479        0.7775406364865980    
    0.1461086346001829        0.7842655654928002    
    0.1513268001216181        0.7911896089298581    
    0.1565449656430532        0.7983081161889413    
    0.1617631311644883        0.8056163106077890    
    0.1669812966859234        0.8131092930983034    
    0.1721994622073585        0.8207820458620243    
    0.1774176277287936        0.8286294361901833    
    0.1826357932502287        0.8366462203449987    
    0.1878539587716638        0.8448270475187888    
    0.1930721242930989        0.8531664638674031    
    0.1982902898145340        0.8616589166144489    
    0.2035084553359691        0.8702987582226721    
    0.2087266208574042        0.8790802506288674    
    0.2139447863788393        0.8879975695385791    
    0.2191629519002744        0.8970448087768425    
    0.2243811174217095        0.9062159846911634    
    0.2295992829431446        0.9155050406028834    
    0.2348174484645797        0.9249058513030630    
    0.2400356139860149        0.9344122275889486    
    0.2452537795074499        0.9440179208370985    
    0.2504719450288850        0.9537166276091910    
    0.2556901105503201        0.9635019942865185    
    0.2609082760717553        0.9733676217291708    
    0.2661264415931904        0.9833070699558746    
    0.2713446071146255        0.9933138628404664    
    0.2765627726360606         1.003381492820954    
    0.2817809381574957         1.013503425617124    
    0.2869991036789308         1.023673104952670    
    0.2922172692003659         1.033883957277788    
    0.2974354347218010         1.044129396488233    
    0.3026536002432361         1.054402828636821    
    0.3078717657646712         1.064697656633375    
    0.3130899312861063         1.075007284929162    
    0.3183080968075414         1.085325124181846    
    0.3235262623289765         1.095644595897076    
    0.3287444278504116         1.105959137042783    
    0.3339625933718467         1.116262204632371    
    0.3391807588932819         1.126547280272981    
    0.3443989244147170         1.136807874675038    
    0.3496170899361521         1.147037532119414    
    0.3548352554575872         1.157229834878495    
    0.3600534209790223         1.167378407587553    
    0.3652715865004574         1.177476921562883    
    0.3704897520218925         1.187519099063183    
    0.3757079175433276         1.197498717490775    
    0.3809260830647627         1.207409613529291    
    0.3861442485861978         1.217245687214531    
    0.3913624141076329         1.227000905935294    
    0.3965805796290680         1.236669308361018    
    0.4017987451505031         1.246245008293199    
    0.4070169106719382         1.255722198437589    
    0.4122350761933734         1.265095154094294    
    0.4174532417148085         1.274358236762974    
    0.4226714072362435         1.283505897660428    
    0.4278895727576786         1.292532681147948    
    0.4331077382791138         1.301433228065925    
    0.4383259038005489         1.310202278973286    
    0.4435440693219840         1.318834677289425    
    0.4487622348434191         1.327325372336441    
    0.4539804003648542         1.335669422279522    
    0.4591985658862893         1.343861996963515    
    0.4644167314077244         1.351898380643738    
    0.4696348969291595         1.359773974609276    
    0.4748530624505946         1.367484299697063    
    0.4800712279720297         1.375024998695183    
    0.4852893934934648         1.382391838633944    
    0.4905075590148999         1.389580712963382    
    0.4957257245363350         1.396587643615971    
    0.5009438900577701         1.403408782953423    
    0.5061620555792052         1.410040415596621    
    0.5113802211006403         1.416478960137759    
    0.5165983866220755         1.422720970734000    
    0.5218165521435105         1.428763138581955    
    0.5270347176649457         1.434602293272522    
    0.5322528831863808         1.440235404025651    
    0.5374710487078158         1.445659580804776    
    0.5426892142292510         1.450872075310743    
    0.5479073797506860         1.455870281855211    
    0.5531255452721212         1.460651738113585    
    0.5583437107935563         1.465214125757681    
    0.5635618763149914         1.469555270968458    
    0.5687800418364265         1.473673144829190    
    0.5739982073578616         1.477565863599678    
    0.5792163728792967         1.481231688872131    
    0.5844345384007318         1.484669027609471    
    0.5896527039221670         1.487876432066968    
    0.5948708694436020         1.490852599598180    
    0.6000890349650372         1.493596372346284    
    0.6053072004864722         1.496106736822030    
    0.6105253660079073         1.498382823369579    
    0.6157435315293425         1.500423905521695    
    0.6209616970507775         1.502229399245738    
    0.6261798625722127         1.503798862082104    
    0.6313980280936478         1.505131992176812    
    0.6366161936150828         1.506228627210011    
    0.6418343591365180         1.507088743222327    
    0.6470525246579530         1.507712453341001    
    0.6522706901793882         1.508100006407896    
    0.6574888557008233         1.508251785511493    
    0.6627070212222584         1.508168306425133    
    0.6679251867436935         1.507850215953781    
    0.6731433522651286         1.507298290191696    
    0.6783615177865637         1.506513432693449    
    0.6835796833079988         1.505496672560815    
    0.6887978488294340         1.504249162448093    
    0.6940160143508690         1.502772176488516    
    0.6992341798723042         1.501067108144440    
    0.7044523453937392         1.499135467984049    
    0.7096705109151743         1.496978881387401    
    0.7148886764366095         1.494599086184653    
    0.7201068419580445         1.491997930229345    
    0.7253250074794797         1.489177368909706    
    0.7305431730009148         1.486139462600911    
    0.7357613385223498         1.482886374061333    
    0.7409795040437850         1.479420365775789    
    0.7461976695652200         1.475743797248850    
    0.7514158350866552         1.471859122251298    
    0.7566340006080903         1.467768886022806    
    0.7618521661295254         1.463475722433985    
    0.7670703316509605         1.458982351110879    
    0.7722884971723956         1.454291574525066    
    0.7775066626938307         1.449406275056651    
    0.7827248282152658         1.444329412151223    
    0.7879429937367010         1.439064018917866    
    0.7931611592581360         1.433613199534777    
    0.7983793247795712         1.427980126067649    
    0.8035974903010062         1.422168035420929    
    0.8088156558224413         1.416180226274490    
    0.8140338213438765         1.410020056010713    
    0.8192519868653115         1.403690937635034    
    0.8244701523867467         1.397196336692941    
    0.8296883179081818         1.390539768186393    
    0.8349064834296169         1.383724793492580    
    0.8401246489510520         1.376755017287935    
    0.8453428144724870         1.369634084480229    
    0.8505609799939222         1.362365677151571    
    0.8557791455153573         1.354953511515063    
    0.8609973110367924         1.347401334887818    
    0.8662154765582275         1.339712922683002    
    0.8714336420796626         1.331892075423498    
    0.8766518076010977         1.323942615779729    
    0.8818699731225328         1.315868385634118    
    0.8870881386439680         1.307673243174625    
    0.8923063041654030         1.299361060019671    
    0.8975244696868382         1.290935718376775    
    0.9027426352082732         1.282401108237099    
    0.9079608007297083         1.273761124608031    
    0.9131789662511435         1.265019664785908    
    0.9183971317725785         1.256180625670843    
    0.9236152972940137         1.247247901125586    
    0.9288334628154488         1.238225379380258    
    0.9340516283368839         1.229116940484716    
    0.9392697938583190         1.219926453810225    
    0.9444879593797540         1.210657775602032    
    0.9497061249011892         1.201314746584366    
    0.9549242904226243         1.191901189619277    
    0.9601424559440594         1.182420907420673    
    0.9653606214654945         1.172877680324806    
    0.9705787869869296         1.163275264118379    
    0.9757969525083647         1.153617387925377    
    0.9810151180297998         1.143907752153601    
    0.9862332835512350         1.134150026501833    
    0.9914514490726700         1.124347848028469    
    0.9966696145941052         1.114504819282332    
     1.001887780115540         1.104624506496366    
     1.007105945636975         1.094710437844725    
     1.012324111158410         1.084766101763807    
     1.017542276679846         1.074794945337575    
     1.022760442201281         1.064800372747517    
     1.027978607722716         1.054785743787470    
     1.033196773244151         1.044754372443459    
     1.038414938765586         1.034709525538622    
     1.043633104287021         1.024654421443206    
     1.048851269808456         1.014592228849572    
     1.054069435329891         1.004526065612009    
     1.059287600851326        0.9944589976511471    
     1.064505766372762        0.9843940379226374    
     1.069723931894197        0.9743341454497215    
     1.074942097415632        0.9642822244192436    
     1.080160262937067        0.9542411233405553    
     1.085378428458502        0.9442136342667408    
     1.090596593979937        0.9342024920775092    
     1.095814759501372        0.9242103738230103    
     1.101032925022807        0.9142398981278307    
     1.106251090544242        0.9042936246543002    
     1.111469256065677        0.8943740536242307    
     1.116687421587113        0.8844836253981391    
     1.121905587108548        0.8746247201109514    
     1.127123752629983        0.8647996573631500    
     1.132341918151418        0.8550106959662597    
     1.137560083672853        0.8452600337415407    
     1.142778249194288        0.8355498073707154    
     1.147996414715723        0.8258820922975038    
     1.153214580237158        0.8162589026787194    
     1.158432745758593        0.8066821913836439    
     1.163650911280029        0.7971538500403562    
     1.168869076801464        0.7876757091276836    
     1.174087242322899        0.7782495381113830    
     1.179305407844334        0.7688770456232031    
     1.184523573365769        0.7595598796813652    
     1.189741738887204        0.7502996279510702    
     1.194959904408639        0.7410978180435845    
     1.200178069930074        0.7319559178524320    
     1.205396235451509        0.7228753359252501    
     1.210614400972944        0.7138574218698311    
     1.215832566494380        0.7049034667928731    
     1.221050732015815        0.6960147037699688    
     1.226268897537250        0.6871923083453639    
     1.231487063058685        0.6784373990600006    
     1.236705228580120        0.6697510380064068    
     1.241923394101555        0.6611342314089383    
     1.247141559622990        0.6525879302279866    
     1.252359725144425        0.6441130307866512    
     1.257577890665860        0.6357103754185339    
     1.262796056187296        0.6273807531351905    
     1.268014221708731        0.6191249003119196    
     1.273232387230166        0.6109435013904894    
     1.278450552751601        0.6028371895974908    
     1.283668718273036        0.5948065476770160    
     1.288886883794471        0.5868521086363546    
     1.294105049315906        0.5789743565034972    
     1.299323214837341        0.5711737270951814    
     1.304541380358776        0.5634506087943434    
     1.309759545880211        0.5558053433357639    
     1.314977711401647        0.5482382265988536    
     1.320195876923082        0.5407495094064293    
     1.325414042444517        0.5333393983285035    
     1.330632207965952        0.5260080564900157    
     1.335850373487387        0.5187556043815992    
     1.341068539008822        0.5115821206724075    
     1.346286704530257        0.5044876430241600    
     1.351504870051692        0.4974721689055220    
     1.356723035573127        0.4905356564060606    
     1.361941201094563        0.4836780250489871    
     1.367159366615998        0.4768991566019930    
     1.372377532137433        0.4701988958855075    
     1.377595697658868        0.4635770515777431    
     1.382813863180303        0.4570333970159651    
     1.388032028701738        0.4505676709934300    
     1.393250194223173        0.4441795785515185    
     1.398468359744608        0.4378687917666070    
     1.403686525266043        0.4316349505312723    
     1.408904690787478        0.4254776633230204    
     1.414122856308914        0.4193965078617629    
     1.419341021830349        0.4133910319868637    
     1.424559187351784        0.4074607546380220    
     1.429777352873219        0.4016051669126209    
     1.434995518394654        0.3958237325563309    
     1.440213683916089        0.3901158874104388    
     1.445431849437524        0.3844810395401309    
     1.450650014958959        0.3789185702083069    
     1.455868180480394        0.3734278375048959    
     1.461086346001830        0.3680081805670323    
     1.466304511523265        0.3626589240711077    
     1.471522677044700        0.3573793829822479    
     1.476740842566135        0.3521688669578908    
     1.481959008087570        0.3470266843500788    
     1.487177173609005        0.3419521443689008    
     1.492395339130440        0.3369445568915592    
     1.497613504651875        0.3320032319629025    
     1.502831670173310        0.3271274789118591    
     1.508049835694745        0.3223166069104673    
     1.513268001216181        0.3175699254813094    
     1.518486166737616        0.3128867450313821    
     1.523704332259051        0.3082663771847092    
     1.528922497780486        0.3037081349519895    
     1.534140663301921        0.2992113329809021    
     1.539358828823356        0.2947752877962340    
     1.544576994344791        0.2903993180327833    
     1.549795159866226        0.2860827446558961    
     1.555013325387661        0.2818248911707323    
     1.560231490909097        0.2776250838210235    
     1.565449656430532        0.2734826517776999    
     1.570667821951967        0.2693969273177431    
     1.575885987473402        0.2653672459936123    
     1.581104152994837        0.2613929467935669    
     1.586322318516272        0.2574733722932305    
     1.591540484037707        0.2536078687986995    
     1.596758649559142        0.2497957864815041    
     1.601976815080577        0.2460364795057189    
     1.607194980602012        0.2423293061472754    
     1.612413146123448        0.2386736287824471    
     1.617631311644883        0.2350688139060308    
     1.622849477166318        0.2315142326381931    
     1.628067642687753        0.2280092606313403    
     1.633285808209188        0.2245532781506599    
     1.638503973730623        0.2211456701535613    
     1.643722139252058        0.2177858263633350    
     1.648940304773493        0.2144731413372476    
     1.654158470294928        0.2112070145292969    
     1.659376635816364        0.2079868503478189    
     1.664594801337799        0.2048120582081672    
     1.669812966859234        0.2016820525806423    
     1.675031132380669        0.1985962530338735    
     1.680249297902104        0.1955540842738181    
     1.685467463423539        0.1925549761785723    
     1.690685628944974        0.1895983638291510    
     1.695903794466409        0.1866836875364066    
     1.701121959987844        0.1838103928642452    
     1.706340125509279        0.1809779306492920    
     1.711558291030715        0.1781857570171579    
     1.716776456552150        0.1754333333954486    
     1.721994622073585        0.1727201265236531    
     1.727212787595020        0.1700456084600521    
     1.732430953116455        0.1674092565857686    
     1.737649118637890        0.1648105536060909    
     1.742867284159325        0.1622489875491871    
     1.748085449680760        0.1597240517623258    
     1.753303615202195        0.1572352449057187    
     1.758521780723631        0.1547820709440962    
     1.763739946245066        0.1523640391361096    
     1.768958111766501        0.1499806640216781    
     1.774176277287936        0.1476314654073626    
     1.779394442809371        0.1453159683498726    
     1.784612608330806        0.1430337031377885    
     1.789830773852241        0.1407842052715927    
     1.795048939373676        0.1385670154420906    
     1.800267104895111        0.1363816795073083    
     1.805485270416546        0.1342277484679357    
     1.810703435937982        0.1321047784414029    
     1.815921601459417        0.1300123306346558    
     1.821139766980852        0.1279499713157005    
     1.826357932502287        0.1259172717839886    
     1.831576098023722        0.1239138083397074    
     1.836794263545157        0.1219391622520350    
     1.842012429066592        0.1199929197264251    
     1.847230594588027        0.1180746718709764    
     1.852448760109462        0.1161840146619459    
     1.857666925630898        0.1143205489084549    
     1.862885091152333        0.1124838802164482    
     1.868103256673768        0.1106736189519461    
     1.873321422195203        0.1088893802036471    
     1.878539587716638        0.1071307837449179    
     1.883757753238073        0.1053974539952246    
     1.888975918759508        0.1036890199810415    
     1.894194084280943        0.1020051152962776    
     1.899412249802378        0.1003453780622674    
     1.904630415323813        0.9870945088735447E-01
     1.909848580845249        0.9709698082611067E-01
     1.915066746366684        0.9550761933822548E-01
     1.920284911888119        0.9394102224709185E-01
     1.925503077409554        0.9239684969813075E-01
     1.930721242930989        0.9087476611687792E-01
     1.935939408452424        0.8937444016686326E-01
     1.941157573973859        0.8789554470731345E-01
     1.946375739495294        0.8643775675070325E-01
     1.951593905016729        0.8500075742018032E-01
     1.956812070538165        0.8358423190688966E-01
     1.962030236059600        0.8218786942722126E-01
     1.967248401581035        0.8081136318000179E-01
     1.972466567102470        0.7945441030365417E-01
     1.977684732623905        0.7811671183334487E-01
     1.982902898145340        0.7679797265813629E-01
     1.988121063666775        0.7549790147816639E-01
     1.993339229188210        0.7421621076187285E-01
     1.998557394709645        0.7295261670327464E-01
     2.003775560231080        0.7170683917933360E-01
     2.008993725752516        0.7047860170740718E-01
     2.014211891273951        0.6926763140280677E-01
     2.019430056795386        0.6807365893647858E-01
     2.024648222316821        0.6689641849281916E-01
     2.029866387838256        0.6573564772763407E-01
     2.035084553359691        0.6459108772625788E-01
     2.040302718881126        0.6346248296184613E-01
     2.045520884402561        0.6234958125384093E-01
     2.050739049923997        0.6125213372663364E-01
     2.055957215445432        0.6016989476842535E-01
     2.061175380966866        0.5910262199029460E-01
     2.066393546488302        0.5805007618548514E-01
     2.071611712009737        0.5701202128891831E-01
     2.076829877531172        0.5598822433693718E-01
     2.082048043052607        0.5497845542729218E-01
     2.087266208574042        0.5398248767937244E-01
     2.092484374095477        0.5300009719468887E-01
     2.097702539616912        0.5203106301761753E-01
     2.102920705138347        0.5107516709640367E-01
     2.108138870659783        0.5013219424443749E-01
     2.113357036181218        0.4920193210179971E-01
     2.118575201702653        0.4828417109708624E-01
     2.123793367224088        0.4737870440951410E-01
     2.129011532745523        0.4648532793131002E-01
     2.134229698266958        0.4560384023038853E-01
     2.139447863788393        0.4473404251332008E-01
     2.144666029309828        0.4387573858859205E-01
     2.149884194831263        0.4302873483016594E-01
     2.155102360352699        0.4219284014133139E-01
     2.160320525874134        0.4136786591886087E-01
     2.165538691395569        0.4055362601746345E-01
     2.170756856917004        0.3974993671454304E-01
     2.175975022438439        0.3895661667525809E-01
     2.181193187959874        0.3817348691788636E-01
     2.186411353481309        0.3740037077949573E-01
     2.191629519002744        0.3663709388191756E-01
     2.196847684524180        0.3588348409802855E-01
     2.202065850045615        0.3513937151833702E-01
     2.207284015567049        0.3440458841787431E-01
     2.212502181088485        0.3367896922339302E-01
     2.217720346609920        0.3296235048086879E-01
     2.222938512131355        0.3225457082330782E-01
     2.228156677652790        0.3155547093885643E-01
     2.233374843174225        0.3086489353921523E-01
     2.238593008695660        0.3018268332835457E-01
     2.243811174217095        0.2950868697152924E-01
     2.249029339738530        0.2884275306459550E-01
     2.254247505259966        0.2818473210362354E-01
     2.259465670781401        0.2753447645480869E-01
     2.264683836302836        0.2689184032467605E-01
     2.269902001824271        0.2625667973057960E-01
     2.275120167345706        0.2562885247149385E-01
     2.280338332867141        0.2500821809909295E-01
     2.285556498388576        0.2439463788911978E-01
     2.290774663910011        0.2378797481304046E-01
     2.295992829431446        0.2318809350998205E-01
     2.301210994952882        0.2259486025895240E-01
     2.306429160474317        0.2200814295133924E-01
     2.311647325995752        0.2142781106368718E-01
     2.316865491517187        0.2085373563074747E-01
     2.322083657038622        0.2028578921880282E-01
     2.327301822560057        0.1972384589925913E-01
     2.332519988081492        0.1916778122250749E-01
     2.337738153602927        0.1861747219204791E-01
     2.342956319124363        0.1807279723887767E-01
     2.348174484645797        0.1753363619613820E-01
     2.353392650167232        0.1699987027401739E-01
     2.358610815688668        0.1647138203497454E-01
     2.363828981210103        0.1594805538181797E-01
     2.369047146731538        0.1542977586362641E-01
     2.374265312252973        0.1491643307168647E-01
     2.379483477774408        0.1440792814637320E-01
     2.384701643295843        0.1390418676429932E-01
     2.389919808817278        0.1340517404438851E-01
     2.395137974338713        0.1291090705317793E-01
     2.400356139860149        0.1242146239227386E-01
     2.405574305381584        0.1193697840730307E-01
     2.410792470903019        0.1145765281699412E-01
     2.416010636424454        0.1098373702831885E-01
     2.421228801945889        0.1051552839203353E-01
     2.426446967467324        0.1005336143307471E-01
     2.431665132988759        0.9597598821330258E-02
     2.436883298510194        0.9148622604137215E-02
     2.442101464031629        0.8706826027207879E-02
     2.447319629553065        0.8272606126981124E-02
     2.452537795074500        0.7846357176933634E-02
     2.457755960595934        0.7428465003419130E-02
     2.462974126117370        0.7019302144123465E-02
     2.468192291638805        0.6619223796989562E-02
     2.473410457160240        0.6228564493951164E-02
     2.478628622681675        0.5847635428055801E-02
     2.483846788203110        0.5476722361708515E-02
     2.489064953724546        0.5116084045900269E-02
     2.494283119245980        0.4765951084044225E-02
     2.499501284767415        0.4426525178540667E-02
     2.504719450288851        0.4097978702790575E-02
     2.509937615810286        0.3780454545642101E-02
     2.515155781331721        0.3474066178816965E-02
     2.520373946853156        0.3178897900385044E-02
     2.525592112374591        0.2895005208406361E-02
     2.530810277896026        0.2622415257830531E-02
     2.536028443417461        0.2361127349652023E-02
     2.541246608938896        0.2111113392480146E-02
     2.546464774460331        0.1872318260114639E-02
     2.551682939981767        0.1644659938871392E-02
     2.556901105503202        0.1428029304555282E-02
     2.562119271024637        0.1222289269234951E-02
     2.567337436546072        0.1027272844843610E-02
     2.572555602067507        0.8427792728678558E-03
     2.577773767588942        0.6685664807377536E-03
     2.582991933110377        0.5043359138692993E-03
     2.588210098631812        0.3496994067804210E-03
     2.593428264153248        0.2040949382374422E-03
     2.598646429674683        0.6649196162393533E-04
     2.603864595196117         0.000000000000000    
  0  6  1  0  1.000000   #orbital l, n, z, is_polarized, population
 500    0.1347036903758173E-01     6.721714149753284     # npts, delta, cutoff
     0.000000000000000        0.3835922571534192    
    0.1347036903758173E-01    0.3839976156703577    