<preamble>

<basis_specs>
===============================================================================
Rh                   Z=  45    Mass=  102.91        Charge= 0.17977+309
Lmxo=2 Lmxkb= 2    BasisType=split      Semic=T
L=0  Nsemic=1  Cnfigmx=5
          i=1  nzeta=1  polorb=0  (4s)  (semicore shell)
            splnorm:   0.15000    
               vcte:    40.000    
               rinn:    2.4815    
               qcoe:    0.0000    
               qyuk:    0.0000    
               qwid:   0.10000E-01
                rcs:    2.7544    
            lambdas:    1.0000    
          i=2  nzeta=2  polorb=0  (5s)  (to be polarized non-perturbatively)
            splnorm:   0.15000    
               vcte:    40.000    
               rinn:    6.8975    
               qcoe:    0.0000    
               qyuk:    0.0000    
               qwid:   0.10000E-01
                rcs:    7.6563      5.5180    
            lambdas:    1.0000      1.0000    
L=1  Nsemic=1  Cnfigmx=5
          i=1  nzeta=1  polorb=0  (4p)  (semicore shell)
            splnorm:   0.15000    
               vcte:    40.000    
               rinn:    2.8215    
               qcoe:    0.0000    
               qyuk:    0.0000    
               qwid:   0.10000E-01
                rcs:    3.1319    
            lambdas:    1.0000    
          i=2  nzeta=1  polorb=0  (5p)  (non-perturbative polarization shell)
            splnorm:   0.15000    
               vcte:    40.000    
               rinn:    6.8975    
               qcoe:    0.0000    
               qyuk:    0.0000    
               qwid:   0.10000E-01
                rcs:    7.6563    
            lambdas:    1.0000    
L=2  Nsemic=0  Cnfigmx=4
          i=1  nzeta=2  polorb=0  (4d)
            splnorm:   0.15000    
               vcte:    40.000    
               rinn:    4.6438    
               qcoe:    0.0000    
               qyuk:    0.0000    
               qwid:   0.10000E-01
                rcs:    5.1598      3.3029    
            lambdas:    1.0000      1.0000    
-------------------------------------------------------------------------------
L=0  Nkbl=2  erefs: 0.17977+309 0.17977+309
L=1  Nkbl=2  erefs: 0.17977+309 0.17977+309
L=2  Nkbl=1  erefs: 0.17977+309
===============================================================================
</basis_specs>

<pseudopotential_header>
 Rh pw nrl pcec
 ONCVPSP-3.2018-03-09Hamann's oncvpsp                        
 4s 2.00  r= 1.41/4p 6.00  r= 1.41/4d 8.00  r= 1.36/                    4s:4p:4d:5s:
</pseudopotential_header>
</preamble>
Rh                            # Symbol
Rh                            # Label
   45                         # Atomic number
     17.0000000000                             # Valence charge
     102.910000000        # Mass 
     347.142948028        # Self energy 
   2   7                      # Lmax for basis, no. of nl orbitals 
   2   6                      # Lmax for projectors, no. of nl KB projectors
# PAOs:__________________________
  0  4  1  0  2.000000   #orbital l, n, z, is_polarized, population
 500    0.5519874031023143E-02     2.754417141480549     # npts, delta, cutoff
     0.000000000000000        0.4373644605052860    
    0.5519874031023143E-02    0.4375299875923729    
    0.1103974806204629E-01    0.4380635182842982    
    0.1655962209306943E-01    0.4389523019565759    
    0.2207949612409257E-01    0.4401956597803279    
    0.2759937015511572E-01    0.4417926489899706    
    0.3311924418613886E-01    0.4437420599993195    
    0.3863911821716200E-01    0.4460424169687148    
    0.4415899224818515E-01    0.4486919790154524    
    0.4967886627920829E-01    0.4516887417542387    
    0.5519874031023143E-01    0.4550304391035809    
    0.6071861434125458E-01    0.4587145453391265    
    0.6623848837227772E-01    0.4627382773860596    
    0.7175836240330086E-01    0.4670985973458727    
    0.7727823643432401E-01    0.4717922152538689    
    0.8279811046534716E-01    0.4768155920639613    
    0.8831798449637029E-01    0.4821649428573452    
    0.9383785852739343E-01    0.4878362402714632    
    0.9935773255841658E-01    0.4938252181455102    
    0.1048776065894397        0.5001273753785238    
    0.1103974806204629        0.5067379799958883    
    0.1159173546514860        0.5136520734198824    
    0.1214372286825092        0.5208644749396820    
    0.1269571027135323        0.5283697863760263    
    0.1324769767445554        0.5361623969355513    
    0.1379968507755786        0.5442364882496183    
    0.1435167248066017        0.5525860395922351    
    0.1490365988376249        0.5612048332715319    
    0.1545564728686480        0.5700864601890340    
    0.1600763468996712        0.5792243255608310    
    0.1655962209306943        0.5886116547945593    
    0.1711160949617175        0.5982414995159688    
    0.1766359689927406        0.6081067437386896    
    0.1821558430237637        0.6182001101706688    
    0.1876757170547869        0.6285141666506187    
    0.1931955910858100        0.6390413327076883    
    0.1987154651168332        0.6497738862374421    
    0.2042353391478563        0.6607039702871298    
    0.2097552131788795        0.6718235999431252    
    0.2152750872099026        0.6831246693133065    
    0.2207949612409257        0.6945989585970787    
    0.2263148352719489        0.7062381412356508    
    0.2318347093029720        0.7180337911351142    
    0.2373545833339952        0.7299773899548057    
    0.2428744573650183        0.7420603344533947    
    0.2483943313960414        0.7542739438850709    
    0.2539142054270646        0.7666094674382086    
    0.2594340794580877        0.7790580917088137    
    0.2649539534891109        0.7916109482010929    
    0.2704738275201340        0.8042591208474297    
    0.2759937015511572        0.8169936535400920    
    0.2815135755821803        0.8298055576669828    
    0.2870334496132034        0.8426858196437736    
    0.2925533236442266        0.8556254084347936    
    0.2980731976752498        0.8686152830550722    
    0.3035930717062729        0.8816464000459907    
    0.3091129457372960        0.8947097209170578    
    0.3146328197683192        0.9077962195463594    
    0.3201526937993423        0.9208968895323525    
    0.3256725678303655        0.9340027514897057    
    0.3311924418613886        0.9471048602820158    
    0.3367123158924117        0.9601943121842988    
    0.3422321899234349        0.9732622519682889    
    0.3477520639544580        0.9862998799036656    
    0.3532719379854812        0.9992984586684617    
    0.3587918120165043         1.012249320162048    
    0.3643116860475274         1.025143872214207    
    0.3698315600785506         1.037973605183954    
    0.3753514341095737         1.050730098441931    
    0.3808713081405969         1.063405026730357    
    0.3863911821716201         1.075990166394643    
    0.3919110562026432         1.088477401481030    
    0.3974309302336663         1.100858729694692    
    0.4029508042646895         1.113126268213026    
    0.4084706782957126         1.125272259348939    
    0.4139905523267358         1.137289076059248    
    0.4195104263577589         1.149169227293411    
    0.4250303003887820         1.160905363178080    
    0.4305501744198052         1.172490280033134    
    0.4360700484508283         1.183916925215099    
    0.4415899224818515         1.195178401784061    
    0.4471097965128746         1.206267972990396    
    0.4526296705438977         1.217179066577899    
    0.4581495445749209         1.227905278900068    
    0.4636694186059440         1.238440378846617    
    0.4691892926369672         1.248778311577410    
    0.4747091666679903         1.258913202061379    
    0.4802290406990135         1.268839358418114    
    0.4857489147300366         1.278551275060122    
    0.4912687887610598         1.288043635633978    
    0.4967886627920829         1.297311315758825    
    0.5023085368231061         1.306349385560930    
    0.5078284108541292         1.315153112003263    
    0.5133482848851524         1.323717961009280    
    0.5188681589161754         1.332039599380368    
    0.5243880329471986         1.340113896506633    
    0.5299079069782218         1.347936925870977    
    0.5354277810092449         1.355504966346594    
    0.5409476550402681         1.362814503288372    
    0.5464675290712911         1.369862229418778    
    0.5519874031023143         1.376645045509167    
    0.5575072771333375         1.383160060857608    
    0.5630271511643606         1.389404593564605    
    0.5685470251953838         1.395376170608280    
    0.5740668992264069         1.401072527720811    
    0.5795867732574300         1.406491609068198    
    0.5851066472884532         1.411631566735537    
    0.5906265213194763         1.416490760020330    
    0.5961463953504995         1.421067754536414    
    0.6016662693815227         1.425361321131470    
    0.6071861434125457         1.429370434621084    
    0.6127060174435689         1.433094272342689    
    0.6182258914745921         1.436532212532794    
    0.6237457655056152         1.439683832531130    
    0.6292656395366384         1.442548906815553    
    0.6347855135676614         1.445127404871599    
    0.6403053875986846         1.447419488900896    
    0.6458252616297078         1.449425511372683    
    0.6513451356607309         1.451146012422883    
    0.6568650096917541         1.452581717105301    
    0.6623848837227773         1.453733532499670    
    0.6679047577538003         1.454602544681378    
    0.6734246317848235         1.455190015557836    
    0.6789445058158466         1.455497379576566    
    0.6844643798468698         1.455526240310170    
    0.6899842538778930         1.455278366923470    
    0.6955041279089160         1.454755690528167    
    0.7010240019399392         1.453960300430457    
    0.7065438759709624         1.452894440277133    
    0.7120637500019855         1.451560504105742    
    0.7175836240330087         1.449961032304418    
    0.7231034980640317         1.448098707487093    
    0.7286233720950549         1.445976350289801    
    0.7341432461260781         1.443596915093805    
    0.7396631201571012         1.440963485681362    
    0.7451829941881244         1.438079270829873    
    0.7507028682191474         1.434947599850239    
    0.7562227422501706         1.431571918075224    
    0.7617426162811938         1.427955782303578    
    0.7672624903122169         1.424102856205716    
    0.7727823643432401         1.420016905696686    
    0.7783022383742633         1.415701794282129    
    0.7838221124052863         1.411161478382901    
    0.7893419864363095         1.406400002643977    
    0.7948618604673326         1.401421495671904    
    0.8003817344983558         1.396230164540675    
    0.8059016085293790         1.390830289805522    
    0.8114214825604020         1.385226221975883    
    0.8169413565914252         1.379422376286384    
    0.8224612306224484         1.373423228025726    
    0.8279811046534715         1.367233307887232    
    0.8335009786844947         1.360857197346030    
    0.8390208527155179         1.354299524067697    
    0.8445407267465409         1.347564957353125    
    0.8500606007775641         1.340658203624254    
    0.8555804748085872         1.333584001955140    
    0.8611003488396104         1.326347119652767    
    0.8666202228706336         1.318952347891799    
    0.8721400969016566         1.311404497407396    
    0.8776599709326798         1.303708394250031    
    0.8831798449637029         1.295868875606098    
    0.8886997189947261         1.287890785687976    
    0.8942195930257493         1.279778971697032    
    0.8997394670567723         1.271538279862894    
    0.9052593410877955         1.263173551562165    
    0.9107792151188187         1.254689619519588    
    0.9162990891498418         1.246091304094498    
    0.9218189631808650         1.237383409655231    
    0.9273388372118880         1.228570721043993    
    0.9328587112429112         1.219658000134514    
    0.9383785852739344         1.210649982484649    
    0.9438984593049575         1.201551374085901    
    0.9494183333359807         1.192366848211685    
    0.9549382073670039         1.183101042365955    
    0.9604580813980269         1.173758555333663    
    0.9659779554290501         1.164343944334345    
    0.9714978294600732         1.154861722279932    
    0.9770177034910964         1.145316355137740    
    0.9825375775221196         1.135712259399416    
    0.9880574515531426         1.126053799656433    
    0.9935773255841658         1.116345286282586    
    0.9990971996151889         1.106590973223744    
     1.004617073646212         1.096795055894991    
     1.010136947677235         1.086961669185090    
     1.015656821708258         1.077094885568073    
     1.021176695739282         1.067198713321594    
     1.026696569770305         1.057277094851545    
     1.032216443801328         1.047333905122267    
     1.037736317832351         1.037372950191561    
     1.043256191863374         1.027397965849585    
     1.048776065894397         1.017412616360514    
     1.054295939925420         1.007420493305829    
     1.059815813956444        0.9974251145278514    
     1.065335687987467        0.9874299231721030    
     1.070855562018490        0.9774382868269323    
     1.076375436049513        0.9674534967587147    
     1.081895310080536        0.9574787672408684    
     1.087415184111559        0.9475172349747897    
     1.092935058142582        0.9375719586007489    
     1.098454932173605        0.9276459182966725    
     1.103974806204629        0.9177420154626713    
     1.109494680235652        0.9078630724890964    
     1.115014554266675        0.8980118326058112    
     1.120534428297698        0.8881909598103360    
     1.126054302328721        0.8784030388724314    
     1.131574176359744        0.8686505754126459    
     1.137094050390768        0.8589359960523115    
     1.142613924421791        0.8492616486324072    
     1.148133798452814        0.8396298024986957    
     1.153653672483837        0.8300426488504967    
     1.159173546514860        0.8205023011504410    
     1.164693420545883        0.8110107955925144    
     1.170213294576906        0.8015700916257242    
     1.175733168607930        0.7921820725306631    
     1.181253042638953        0.7828485460462914    
     1.186772916669976        0.7735712450442237    
     1.192292790700999        0.7643518282478559    
     1.197812664732022        0.7551918809936319    
     1.203332538763045        0.7460929160318089    
     1.208852412794068        0.7370563743641172    
     1.214372286825091        0.7280836261156651    
     1.219892160856115        0.7191759714385757    
     1.225412034887138        0.7103346414448005    
     1.230931908918161        0.7015607991656446    
     1.236451782949184        0.6928555405355661    
     1.241971656980207        0.6842198953978625    
     1.247491531011230        0.6756548285299443    
     1.253011405042254        0.6671612406858984    
     1.258531279073277        0.6587399696541779    
     1.264051153104300        0.6503917913282571    
     1.269571027135323        0.6421174207882013    
     1.275090901166346        0.6339175133911650    
     1.280610775197369        0.6257926658689037    
     1.286130649228392        0.6177434174304494    
     1.291650523259416        0.6097702508682262    
     1.297170397290439        0.6018735936659009    
     1.302690271321462        0.5940538191064032    
     1.308210145352485        0.5863112473786103    
     1.313730019383508        0.5786461466812755    
     1.319249893414531        0.5710587343228835    
     1.324769767445555        0.5635491778161943    
     1.330289641476577        0.5561175959663254    
     1.335809515507601        0.5487640599513313    
     1.341329389538624        0.5414885943942931    
     1.346849263569647        0.5342911784260771    
     1.352369137600670        0.5271717467379384    
     1.357889011631693        0.5201301906233171    
     1.363408885662716        0.5131663589796919    
     1.368928759693740        0.5062800592411915    
     1.374448633724763        0.4994710586148056    
     1.379968507755786        0.4927390853122071    
     1.385488381786809        0.4860838296986633    
     1.391008255817832        0.4795049440586123    
     1.396528129848855        0.4730020427082874    
     1.402048003879878        0.4665747031006013    
     1.407567877910902        0.4602224696945010    
     1.413087751941925        0.4539448587970473    
     1.418607625972948        0.4477413638081062    
     1.424127500003971        0.4416114609290472    
     1.429647374034994        0.4355546143980030    
     1.435167248066017        0.4295702808745734    
     1.440687122097041        0.4236579103601156    
     1.446206996128063        0.4178169458827009    
     1.451726870159087        0.4120468225811229    
     1.457246744190110        0.4063469681891271    
     1.462766618221133        0.4007168039104987    
     1.468286492252156        0.3951557452398495    
     1.473806366283179        0.3896632025136247    
     1.479326240314202        0.3842385813124209    
     1.484846114345226        0.3788812829284970    
     1.490365988376249        0.3735907048196123    
     1.495885862407272        0.3683662410500758    
     1.501405736438295        0.3632072827113869    
     1.506925610469318        0.3581132183255742    
     1.512445484500341        0.3530834342319602    
     1.517965358531364        0.3481173149578963    
     1.523485232562388        0.3432142435739874    
     1.529005106593411        0.3383736020343251    
     1.534524980624434        0.3335947715022309    
     1.540044854655457        0.3288771326619779    
     1.545564728686480        0.3242200660169723    
     1.551084602717503        0.3196229521741684    
     1.556604476748527        0.3150851719656392    
     1.562124350779549        0.3106061064862720    
     1.567644224810573        0.3061851380015298    
     1.573164098841596        0.3018216499268153    
     1.578683972872619        0.2975150270376550    
     1.584203846903642        0.2932646556846658    
     1.589723720934665        0.2890699239982738    
     1.595243594965688        0.2849302220835357    
     1.600763468996712        0.2808449422054220    
     1.606283343027735        0.2768134789648816    
     1.611803217058758        0.2728352294660257    
     1.617323091089781        0.2689095934747363    
     1.622842965120804        0.2650359735690124    
     1.628362839151827        0.2612137752813466    
     1.633882713182850        0.2574424072334128    
     1.639402587213874        0.2537212812633527    
     1.644922461244897        0.2500498125459274    
     1.650442335275920        0.2464274197057865    
     1.655962209306943        0.2428535249241158    
     1.661482083337966        0.2393275540389055    
     1.667001957368989        0.2358489366390757    
     1.672521831400013        0.2324171061526812    
     1.678041705431036        0.2290314999294295    
     1.683561579462059        0.2256915593177163    
     1.689081453493082        0.2223967297363919    
     1.694601327524105        0.2191464607414527    
     1.700121201555128        0.2159402060878603    
     1.705641075586151        0.2127774237866701    
     1.711160949617174        0.2096575761576549    
     1.716680823648198        0.2065801298775969    
     1.722200697679221        0.2035445560244156    
     1.727720571710244        0.2005503301173044    
     1.733240445741267        0.1975969321530289    
     1.738760319772290        0.1946838466385384    
     1.744280193803313        0.1918105626200470    
     1.749800067834336        0.1889765737087193    
     1.755319941865360        0.1861813781031063    
     1.760839815896383        0.1834244786084628    
     1.766359689927406        0.1807053826530744    
     1.771879563958429        0.1780236023017263    
     1.777399437989452        0.1753786542664216    
     1.782919312020475        0.1727700599144820    
     1.788439186051499        0.1701973452741317    
     1.793959060082522        0.1676600410376797    
     1.799478934113545        0.1651576825624030    
     1.804998808144568        0.1626898098692347    
     1.810518682175591        0.1602559676393510    
     1.816038556206614        0.1578557052087594    
     1.821558430237637        0.1554885765609687    
     1.827078304268660        0.1531541403178392    
     1.832598178299684        0.1508519597286932    
     1.838118052330707        0.1485816026577677    
     1.843637926361730        0.1463426415700914    
     1.849157800392753        0.1441346535158579    
     1.854677674423776        0.1419572201133729    
     1.860197548454799        0.1398099275306466    
     1.865717422485822        0.1376923664656944    
     1.871237296516846        0.1356041321256179    
     1.876757170547869        0.1335448242045279    
     1.882277044578892        0.1315140468603689    
     1.887796918609915        0.1295114086907058    
     1.893316792640938        0.1275365227075305    
     1.898836666671961        0.1255890063111418    
     1.904356540702985        0.1236684812631489    
     1.909876414734008        0.1217745736586557    
     1.915396288765031        0.1199069138976713    
     1.920916162796054        0.1180651366557882    
     1.926436036827077        0.1162488808541855    
     1.931955910858100        0.1144577896289905    
     1.937475784889123        0.1126915103000433    
     1.942995658920146        0.1109496943391081    
     1.948515532951170        0.1092319973375647    
     1.954035406982193        0.1075380789736219    
     1.959555281013216        0.1058676029790855    
     1.965075155044239        0.1042202371057158    
     1.970595029075262        0.1025956530912103    
     1.976114903106285        0.1009935266248400    
     1.981634777137308        0.9941353731276913E-01
     1.987154651168332        0.9785536864309149E-01
     1.992674525199355        0.9631870795061058E-01
     1.998194399230378        0.9480324638138329E-01
     2.003714273261401        0.9330867885706484E-01
     2.009234147292424        0.9183470403907072E-01
     2.014754021323447        0.9038102429257978E-01
     2.020273895354471        0.8894734565040788E-01
     2.025793769385494        0.8753337777676580E-01
     2.031313643416517        0.8613883393092647E-01
     2.036833517447540        0.8476343093082045E-01
     2.042353391478563        0.8340688911657994E-01
     2.047873265509586        0.8206893231404594E-01
     2.053393139540610        0.8074928779826000E-01
     2.058913013571633        0.7944768625695527E-01
     2.064432887602655        0.7816386175406147E-01
     2.069952761633679        0.7689755169324132E-01
     2.075472635664702        0.7564849678147184E-01
     2.080992509695725        0.7441644099268321E-01
     2.086512383726748        0.7320113153146895E-01
     2.092032257757771        0.7200231879688179E-01
     2.097552131788794        0.7081975634632329E-01
     2.103072005819818        0.6965320085954083E-01
     2.108591879850841        0.6850241210274438E-01
     2.114111753881864        0.6736715289284756E-01
     2.119631627912887        0.6624718906184891E-01
     2.125151501943910        0.6514228942135936E-01
     2.130671375974933        0.6405222572728300E-01
     2.136191250005957        0.6297677264466353E-01
     2.141711124036980        0.6191570771270113E-01
     2.147230998068003        0.6086881130994570E-01
     2.152750872099026        0.5983586661967800E-01
     2.158270746130049        0.5881665959548150E-01
     2.163790620161072        0.5781097892701000E-01
     2.169310494192096        0.5681861600596212E-01
     2.174830368223119        0.5583936489226043E-01
     2.180350242254141        0.5487302228044794E-01
     2.185870116285165        0.5391938746630014E-01
     2.191389990316188        0.5297826231366093E-01
     2.196909864347211        0.5204945122150509E-01
     2.202429738378234        0.5113276109123045E-01
     2.207949612409257        0.5022800129418421E-01
     2.213469486440280        0.4933498363942651E-01
     2.218989360471304        0.4845352234173288E-01
     2.224509234502327        0.4758343398984001E-01
     2.230029108533350        0.4672453751493593E-01
     2.235548982564373        0.4587665415939664E-01
     2.241068856595396        0.4503960744577364E-01
     2.246588730626419        0.4421322314602878E-01
     2.252108604657443        0.4339732925102462E-01
     2.257628478688466        0.4259175594026658E-01
     2.263148352719489        0.4179633555189943E-01
     2.268668226750512        0.4101090255296025E-01
     2.274188100781535        0.4023529350988715E-01
     2.279707974812558        0.3946934705928536E-01
     2.285227848843582        0.3871290387894971E-01
     2.290747722874605        0.3796580665914603E-01
     2.296267596905627        0.3722790007414968E-01
     2.301787470936651        0.3649903075404146E-01
     2.307307344967674        0.3577904725676168E-01
     2.312827218998697        0.3506780004042288E-01
     2.318347093029720        0.3436514143587591E-01
     2.323866967060743        0.3367092561953695E-01
     2.329386841091766        0.3298500858646743E-01
     2.334906715122790        0.3230724812370990E-01
     2.340426589153813        0.3163750378387881E-01
     2.345946463184836        0.3097563685900373E-01
     2.351466337215859        0.3032151035462595E-01
     2.356986211246882        0.2967498896414526E-01
     2.362506085277905        0.2903593904341818E-01
     2.368025959308929        0.2840422858560405E-01
     2.373545833339952        0.2777972719625842E-01
     2.379065707370975        0.2716230606867373E-01
     2.384585581401998        0.2655183795946313E-01
     2.390105455433021        0.2594819716438835E-01
     2.395625329464044        0.2535125949442840E-01
     2.401145203495068        0.2476090225208790E-01
     2.406665077526091        0.2417700420794490E-01
     2.412184951557114        0.2359944557743241E-01
     2.417704825588137        0.2302810799785674E-01
     2.423224699619160        0.2246287450564614E-01
     2.428744573650183        0.2190362951383216E-01
     2.434264447681206        0.2135025878975775E-01
     2.439784321712229        0.2080264943301301E-01
     2.445304195743252        0.2026068985359664E-01
     2.450824069774276        0.1972426975029739E-01
     2.456343943805299        0.1919328008929702E-01
     2.461863817836322        0.1866761308299139E-01
     2.467383691867345        0.1814716216902791E-01
     2.472903565898368        0.1763182198955669E-01
     2.478423439929391        0.1712148837069512E-01
     2.483943313960415        0.1661605830219836E-01
     2.489463187991438        0.1611542991733992E-01
     2.494983062022461        0.1561950247299578E-01
     2.500502936053484        0.1512817633149828E-01
     2.506022810084507        0.1464135303072799E-01
     2.511542684115530        0.1415893635833563E-01
     2.517062558146554        0.1368083715661094E-01
     2.522582432177577        0.1320698389929137E-01
     2.528102306208600        0.1273733707102338E-01
     2.533622180239623        0.1227190299038981E-01
     2.539142054270646        0.1181074363850091E-01
     2.544661928301669        0.1135398118262550E-01
     2.550181802332692        0.1090179752384792E-01
     2.555701676363715        0.1045442998252717E-01
     2.561221550394738        0.1001216440183408E-01
     2.566741424425762        0.9575326802203120E-02
     2.572261298456785        0.9144274464264532E-02
     2.577781172487808        0.8719387061163897E-02
     2.583301046518831        0.8301058245872933E-02
     2.588820920549854        0.7889687934869776E-02
     2.594340794580877        0.7485675411858289E-02
     2.599860668611901        0.7089413294877523E-02
     2.605380542642924        0.6701282357849910E-02
     2.610900416673947        0.6321647165403055E-02
     2.616420290704970        0.5950852461467493E-02
     2.621940164735993        0.5589220243152327E-02
     2.627460038767016        0.5237047448445890E-02
     2.632979912798040        0.4894604187110672E-02
     2.638499786829063        0.4562132447151985E-02
     2.644019660860086        0.4239845213386845E-02
     2.649539534891109        0.3927925939176835E-02
     2.655059408922132        0.3626528316825775E-02
     2.660579282953155        0.3335776296078325E-02
     2.666099156984178        0.3055764303285222E-02
     2.671619031015201        0.2786557615741847E-02
     2.677138905046224        0.2528192846007297E-02
     2.682658779077248        0.2280678488930191E-02
     2.688178653108271        0.2043995478443758E-02
     2.693698527139294        0.1818097689845256E-02
     2.699218401170317        0.1602912302408046E-02
     2.704738275201340        0.1398339899556932E-02
     2.710258149232363        0.1204254115065943E-02
     2.715778023263387        0.1020500503579571E-02
     2.721297897294410        0.8468940541031565E-03
     2.726817771325433        0.6832142091851972E-03
     2.732337645356456        0.5291949457939091E-03
     2.737857519387479        0.3845039910460660E-03
     2.743377393418502        0.2486941490317326E-03
     2.748897267449526        0.1210628620080155E-03
     2.754417141480549         0.000000000000000    
  0  5  1  0  1.000000   #orbital l, n, z, is_polarized, population
 500    0.1534322072578560E-01     7.656267142167012     # npts, delta, cutoff
     0.000000000000000        0.1822165368828063    
    0.1534322072578560E-01    0.1827428785176986    
    0.3068644145157119E-01    0.1843331393197538    