<preamble>

<basis_specs>
===============================================================================
Xe                   Z=  54    Mass=  131.29        Charge= 0.17977+309
Lmxo=2 Lmxkb= 2    BasisType=split      Semic=F
L=0  Nsemic=0  Cnfigmx=5
          i=1  nzeta=2  polorb=0  (5s)
            splnorm:   0.15000    
               vcte:    40.000    
               rinn:    4.2904    
               qcoe:    0.0000    
               qyuk:    0.0000    
               qwid:   0.10000E-01
                rcs:    4.7623      3.2634    
            lambdas:    1.0000      1.0000    
L=1  Nsemic=0  Cnfigmx=5
          i=1  nzeta=2  polorb=1  (5p)  (to be polarized perturbatively)
            splnorm:   0.15000    
               vcte:    40.000    
               rinn:    5.3806    
               qcoe:    0.0000    
               qyuk:    0.0000    
               qwid:   0.10000E-01
                rcs:    5.9724      4.1513    
            lambdas:    1.0000      1.0000    
L=2  Nsemic=0  Cnfigmx=5
          i=1  nzeta=0  polorb=0  (5d)  (perturbative polarization orbital) (from 5p)
-------------------------------------------------------------------------------
L=0  Nkbl=1  erefs: 0.17977+309
L=1  Nkbl=1  erefs: 0.17977+309
L=2  Nkbl=1  erefs: 0.17977+309
===============================================================================
</basis_specs>

<pseudopotential_header>
 Xe pw nrl pcec
 ONCVPSP-3.2018-03-09Hamann's oncvpsp                        
 5s 2.00  r= 2.01/5p 6.00  r= 1.80/5d 0.00  r= 2.21/                    5s:5p:
</pseudopotential_header>
</preamble>
Xe                            # Symbol
Xe                            # Label
   54                         # Atomic number
     8.00000000000                             # Valence charge
     131.290000000        # Mass 
     61.3129997192        # Self energy 
   2   5                      # Lmax for basis, no. of nl orbitals 
   2   6                      # Lmax for projectors, no. of nl KB projectors
# PAOs:__________________________
  0  5  1  0  2.000000   #orbital l, n, z, is_polarized, population
 500    0.9543701194629895E-02     4.762306896120318     # npts, delta, cutoff
     0.000000000000000        0.7768299264966562E-01
    0.9543701194629895E-02    0.7776417522805072E-01
    0.1908740238925979E-01    0.7801073109102666E-01
    0.2863110358388968E-01    0.7842134431747465E-01
    0.3817480477851958E-01    0.7899554454122554E-01
    0.4771850597314948E-01    0.7973267518202545E-01
    0.5726220716777937E-01    0.8063189486469795E-01
    0.6680590836240927E-01    0.8169217944093614E-01
    0.7634960955703916E-01    0.8291232447093029E-01
    0.8589331075166906E-01    0.8429094814110902E-01
    0.9543701194629896E-01    0.8582649460484743E-01
    0.1049807131409289        0.8751723773374512E-01
    0.1145244143355587        0.8936128526622829E-01
    0.1240681155301886        0.9135658333905371E-01
    0.1336118167248185        0.9350092138606526E-01
    0.1431555179194484        0.9579193738734813E-01
    0.1526992191140783        0.9822712345077368E-01
    0.1622429203087082        0.1008038317068370    
    0.1717866215033381        0.1035192804966701    
    0.1813303226979680        0.1063705608321659    
    0.1908740238925979        0.1093546431062828    
    0.2004177250872278        0.1124683840308130    
    0.2099614262818577        0.1157085337781993    
    0.2195051274764876        0.1190717433033688    
    0.2290488286711175        0.1225545718210335    
    0.2385925298657474        0.1261534944134768    
    0.2481362310603773        0.1298649097435033    
    0.2576799322550072        0.1336851478469945    
    0.2672236334496371        0.1376104779793605    
    0.2767673346442669        0.1416371164901336    
    0.2863110358388969        0.1457612346999877    
    0.2958547370335268        0.1499789667546241    
    0.3053984382281567        0.1542864174301830    
    0.3149421394227865        0.1586796698651940    
    0.3244858406174164        0.1631547931944836    
    0.3340295418120464        0.1677078500609924    
    0.3435732430066762        0.1723349039820432    
    0.3531169442013061        0.1770320265473079    
    0.3626606453959360        0.1817953044264861    
    0.3722043465905659        0.1866208461655676    
    0.3817480477851958        0.1915047887514848    
    0.3912917489798257        0.1964433039259603    
    0.4008354501744556        0.2014326042304405    
    0.4103791513690855        0.2064689487651305    
    0.4199228525637154        0.2115486486463577    
    0.4294665537583453        0.2166680721477341    
    0.4390102549529752        0.2218236495119013    
    0.4485539561476051        0.2270118774209833    
    0.4580976573422350        0.2322293231152616    
    0.4676413585368649        0.2374726281510153    
    0.4771850597314948        0.2427385117899103    
    0.4867287609261247        0.2480237740138000    
    0.4962724621207545        0.2533252981602898    
    0.5058161633153845        0.2586400531759124    
    0.5153598645100144        0.2639650954852724    
    0.5249035657046442        0.2692975704760207    
    0.5344472668992741        0.2746347136010086    
    0.5439909680939040        0.2799738511004699    
    0.5535346692885339        0.2853124003485311    
    0.5630783704831638        0.2906478698297966    
    0.5726220716777938        0.2959778587531695    
    0.5821657728724237        0.3013000563114324    
    0.5917094740670535        0.3066122405964658    
    0.6012531752616834        0.3119122771812499    
    0.6107968764563133        0.3171981173810494    
    0.6203405776509432        0.3224677962073516    
    0.6298842788455731        0.3277194300292582    
    0.6394279800402030        0.3329512139580854    
    0.6489716812348328        0.3381614189719122    
    0.6585153824294628        0.3433483887977385    
    0.6680590836240927        0.3485105365697632    
    0.6776027848187226        0.3536463412830324    
    0.6871464860133525        0.3587543440624145    
    0.6966901872079824        0.3638331442674487    
    0.7062338884026123        0.3688813954541147    
    0.7157775895972421        0.3738978012150074    
    0.7253212907918720        0.3788811109197360    
    0.7348649919865019        0.3838301153776020    
    0.7444086931811319        0.3887436424447769    
    0.7539523943757618        0.3936205525982491    
    0.7634960955703917        0.3984597344988035    
    0.7730397967650215        0.4032601005651464    
    0.7825834979596514        0.4080205825811216    
    0.7921271991542813        0.4127401273576236    
    0.8016709003489112        0.4174176924704601    
    0.8112146015435411        0.4220522420949376    
    0.8207583027381710        0.4266427429573823    
    0.8303020039328010        0.4311881604231885    
    0.8398457051274308        0.4356874547402670    
    0.8493894063220607        0.4401395774559816    
    0.8589331075166906        0.4445434680248030    
    0.8684768087113205        0.4488980506229933    
    0.8780205099059504        0.4532022311856275    
    0.8875642111005803        0.4574548946802285    
    0.8971079122952101        0.4616549026301789    
    0.9066516134898400        0.4658010908999221    
    0.9161953146844699        0.4698922677527606    
    0.9257390158790999        0.4739272121908344    
    0.9352827170737298        0.4779046725855589    
    0.9448264182683597        0.4818233656055398    
    0.9543701194629896        0.4856819754475938    
    0.9639138206576194        0.4894791533752195    
    0.9734575218522493        0.4932135175674405    
    0.9830012230468792        0.4968836532796164    
    0.9925449242415091        0.5004881133164074    
     1.002088625436139        0.5040254188157407    
     1.011632326630769        0.5074940603412326    
     1.021176027825399        0.5108924992791941    
     1.030719729020029        0.5142191695350110    
     1.040263430214659        0.5174724795223826    
     1.049807131409288        0.5206508144376231    
     1.059350832603918        0.5237525388100214    
     1.068894533798548        0.5267759993180010    
     1.078438234993178        0.5297195278597341    
     1.087981936187808        0.5325814448656945    
     1.097525637382438        0.5353600628396267    
     1.107069338577068        0.5380536901134095    
     1.116613039771698        0.5406606348003352    
     1.126156740966328        0.5431792089304905    
     1.135700442160958        0.5456077327511125    
     1.145244143355588        0.5479445391740611    
     1.154787844550217        0.5501879783519271    
     1.164331545744847        0.5523364223636801    
     1.173875246939477        0.5543882699903014    
     1.183418948134107        0.5563419515604139    
     1.192962649328737        0.5581959338455956    
     1.202506350523367        0.5599487249848197    
     1.212050051717997        0.5615988794172883    
     1.221593752912627        0.5631450028028652    
     1.231137454107257        0.5645857569093107    
     1.240681155301886        0.5659198644456044    
     1.250224856496516        0.5671461138208440    
     1.259768557691146        0.5682633638084316    
     1.269312258885776        0.5692705480956309    
     1.278855960080406        0.5701666796989864    
     1.288399661275036        0.5709508552265913    
     1.297943362469666        0.5716222589687773    
     1.307487063664296        0.5721801667994477    
     1.317030764858926        0.5726239498709907    
     1.326574466053555        0.5729530780865032    
     1.336118167248185        0.5731671233339179    
     1.345661868442815        0.5732657624675218    
     1.355205569637445        0.5732487800233492    
     1.364749270832075        0.5731160706559466    
     1.374292972026705        0.5728676412850782    
     1.383836673221335        0.5725036129420732    
     1.393380374415965        0.5720242223066632    
     1.402924075610595        0.5714298229263619    
     1.412467776805225        0.5707208861116615    
     1.422011477999855        0.5698980015015616    
     1.431555179194484        0.5689618772952454    
     1.441098880389114        0.5679133401469628    
     1.450642581583744        0.5667533347225187    
     1.460186282778374        0.5654829229170263    
     1.469729983973004        0.5641032825010892    
     1.479273685167634        0.5626157034927829    
     1.488817386362264        0.5610215898189478    
     1.498361087556894        0.5593224566874437    
     1.507904788751524        0.5575199280305329    
     1.517448489946153        0.5556157329243271    
     1.526992191140783        0.5536117027726236    
     1.536535892335413        0.5515097684769825    
     1.546079593530043        0.5493119565011484    
     1.555623294724673        0.5470203849635070    
     1.565166995919303        0.5446372594694305    
     1.574710697113933        0.5421648686973451    
     1.584254398308563        0.5396055797532746    
     1.593798099503193        0.5369618333094707    
     1.603341800697822        0.5342361385435398    
     1.612885501892452        0.5314310678951982    
     1.622429203087082        0.5285492516584601    
     1.631972904281712        0.5255933724276468    
     1.641516605476342        0.5225661594161261    
     1.651060306670972        0.5194703826671407    
     1.660604007865602        0.5163088471764467    
     1.670147709060232        0.5130843869467737    
     1.679691410254862        0.5097998589943423    
     1.689235111449491        0.5064581373277913    
     1.698778812644121        0.5030621069199442    
     1.708322513838751        0.4996146576927996    
     1.717866215033381        0.4961186785360459    
     1.727409916228011        0.4925770513792116    
     1.736953617422641        0.4889926453373097    
     1.746497318617271        0.4853683109494965    
     1.756041019811901        0.4817068745298758    
     1.765584721006531        0.4780111326490731    
     1.775128422201161        0.4742838467646921    
     1.784672123395791        0.4705277380181123    
     1.794215824590420        0.4667454822144403    
     1.803759525785050        0.4629397050016706    
     1.813303226979680        0.4591129772642943    
     1.822846928174310        0.4552678107457631    
     1.832390629368940        0.4514066539133078    
     1.841934330563570        0.4475318880776034    
     1.851478031758200        0.4436458237788330    
     1.861021732952830        0.4397506974496757    
     1.870565434147460        0.4358486683645942    
     1.880109135342089        0.4319418158837505    
     1.889652836536719        0.4280321369987571    
     1.899196537731349        0.4241215441862508    
     1.908740238925979        0.4202118635741554    
     1.918283940120609        0.4163048334243014    
     1.927827641315239        0.4124021029338786    
     1.937371342509869        0.4085052313570105    
     1.946915043704499        0.4046156873642955    
     1.956458744899129        0.4007348487716396    
     1.966002446093758        0.3968640031730252    
     1.975546147288388        0.3930043489128635    
     1.985089848483018        0.3891569937817396    
     1.994633549677648        0.3853229536986589    
     2.004177250872278        0.3815031561198090    
     2.013720952066908        0.3776984507836438    
     2.023264653261538        0.3739096226678886    
     2.032808354456168        0.3701374053924423    
     2.042352055650797        0.3663824934024170    
     2.051895756845428        0.3626455498557772    
     2.061439458040057        0.3589272072114899    
     2.070983159234687        0.3552280654209995    
     2.080526860429317        0.3515486920580796    
     2.090070561623947        0.3478896240658265    
     2.099614262818577        0.3442513692659712    
     2.109157964013207        0.3406344072082214    
     2.118701665207837        0.3370391900636850    
     2.128245366402467        0.3334661435498151    
     2.137789067597097        0.3299156678324875    
     2.147332768791726        0.3263881384013989    
     2.156876469986357        0.3228839069204984    
     2.166420171180986        0.3194033020541489    
     2.175963872375616        0.3159466302695803    
     2.185507573570246        0.3125141766162114    
     2.195051274764876        0.3091062054824051    
     2.204594975959506        0.3057229613302007    
     2.214138677154136        0.3023646694085671    
     2.223682378348766        0.2990315364457171    
     2.233226079543396        0.2957237513209953    
     2.242769780738025        0.2924414857168604    
     2.252313481932655        0.2891848947514652    
     2.261857183127285        0.2859541175923250    
     2.271400884321915        0.2827492780515667    
     2.280944585516545        0.2795704851632266    
     2.290488286711175        0.2764178337430669    
     2.300031987905805        0.2732914049313728    
     2.309575689100435        0.2701912667191629    
     2.319119390295064        0.2671174744582716    
     2.328663091489695        0.2640700713557094    
     2.338206792684324        0.2610490889527452    
     2.347750493878954        0.2580545475890971    
     2.357294195073584        0.2550864568526546    
     2.366837896268214        0.2521448160151075    
     2.376381597462844        0.2492296144538802    
     2.385925298657474        0.2463408320607342    
     2.395468999852104        0.2434784396374164    
     2.405012701046734        0.2406423992787013    
     2.414556402241363        0.2378326647431885    
     2.424100103435993        0.2350491818121821    
     2.433643804630623        0.2322918886370055    
     2.443187505825253        0.2295607160750553    
     2.452731207019883        0.2268555880149331    
     2.462274908214513        0.2241764216909462    
     2.471818609409143        0.2215231279872977    
     2.481362310603773        0.2188956117322446    
     2.490906011798403        0.2162937719825270    
     2.500449712993033        0.2137175022983346    
     2.509993414187663        0.2111666910090974    
     2.519537115382292        0.2086412214703559    
     2.529080816576922        0.2061409723119786    
     2.538624517771552        0.2036658176779777    
     2.548168218966182        0.2012156274581653    
     2.557711920160812        0.1987902675118999    
     2.567255621355442        0.1963895998841469    
     2.576799322550072        0.1940134830140879    
     2.586343023744702        0.1916617719365003    
     2.595886724939331        0.1893343184761160    
     2.605430426133962        0.1870309714351821    
     2.614974127328591        0.1847515767744166    
     2.624517828523221        0.1824959777875636    
     2.634061529717851        0.1802640152697431    
     2.643605230912481        0.1780555276797802    
     2.653148932107111        0.1758703512966989    
     2.662692633301741        0.1737083203705609    
     2.672236334496371        0.1715692672678182    
     2.681780035691001        0.1694530226113526    
     2.691323736885630        0.1673594154153667    
     2.700867438080260        0.1652882732152776    
     2.710411139274890        0.1632394221927806    
     2.719954840469520        0.1612126872962258    
     2.729498541664150        0.1592078923564531    
     2.739042242858780        0.1572248601982334    
     2.748585944053410        0.1552634127474515    
     2.758129645248040        0.1533233711341632    
     2.767673346442669        0.1514045557916593    
     2.777217047637300        0.1495067865516660    
     2.786760748831929        0.1476298827357967    
     2.796304450026559        0.1457736632433838    
     2.805848151221189        0.1439379466358013    
     2.815391852415819        0.1421225512173944    
     2.824935553610449        0.1403272951131193    
     2.834479254805079        0.1385519963430079    
     2.844022955999709        0.1367964728935559    
     2.853566657194339        0.1350605427861343    
     2.863110358388969        0.1333440241425217    
     2.872654059583598        0.1316467352476541    
     2.882197760778229        0.1299684946096821    
     2.891741461972858        0.1283091210174224    
     2.901285163167488        0.1266684335952937    
     2.910828864362118        0.1250462518558171    
     2.920372565556748        0.1234423957497660    
     2.929916266751378        0.1218566857140401    
     2.939459967946008        0.1202889427173408    
     2.949003669140638        0.1187389883037254    
     2.958547370335268        0.1172066446341075    
     2.968091071529897        0.1156917345257754    
     2.977634772724528        0.1141940814899968    
     2.987178473919157        0.1127135097677717    
     2.996722175113787        0.1112498443638013    
     3.006265876308417        0.1098029110787321    
     3.015809577503047        0.1083725365397339    
     3.025353278697677        0.1069585482294742    
     3.034896979892307        0.1055607745135351    
     3.044440681086936        0.1041790446663401    
     3.053984382281567        0.1028131888956327    
     3.063528083476196        0.1014630383655626    
     3.073071784670826        0.1001284252184293    
     3.082615485865456        0.9880918259512649E-01
     3.092159187060086        0.9750514465433964E-01
     3.101702888254716        0.9621614659053709E-01
     3.111246589449346        0.9494202465080012E-01
     3.120790290643976        0.9368261615053362E-01
     3.130333991838606        0.9243775948809833E-01
     3.139877693033235        0.9120729415840274E-01
     3.149421394227866        0.8999106076549600E-01
     3.158965095422495        0.8878890103419522E-01
     3.168508796617125        0.8760065782078515E-01
     3.178052497811755        0.8642617512282470E-01
     3.187596199006385        0.8526529808809426E-01
     3.197139900201015        0.8411787302271302E-01
     3.206683601395645        0.8298374739846336E-01
     3.216227302590275        0.8186276985934847E-01
     3.225771003784905        0.8075479022741305E-01
     3.235314704979535        0.7965965950785778E-01
     3.244858406174164        0.7857722989347279E-01
     3.254402107368795        0.7750735476841873E-01
     3.263945808563424        0.7644988871137938E-01
     3.273489509758054        0.7540468749811179E-01
     3.283033210952684        0.7437160810341766E-01
     3.292576912147314        0.7335050870256121E-01
     3.302120613341944        0.7234124867215190E-01
     3.311664314536574        0.7134368859051760E-01
     3.321208015731204        0.7035769023758864E-01
     3.330751716925834        0.6938311659431178E-01
     3.340295418120463        0.6841983184161408E-01
     3.349839119315093        0.6746770135893752E-01
     3.359382820509723        0.6652659172236038E-01
     3.368926521704353        0.6559637070232445E-01
     3.378470222898983        0.6467690726098541E-01
     3.388013924093613        0.6376807154920226E-01
     3.397557625288243        0.6286973490318251E-01
     3.407101326482873        0.6198176984079792E-01
     3.416645027677502        0.6110405005758604E-01
     3.426188728872133        0.6023645042245363E-01
     3.435732430066762        0.5937884697309181E-01
     3.445276131261392        0.5853111691112085E-01
     3.454819832456022        0.5769313859697606E-01
     3.464363533650652        0.5686479154454494E-01
     3.473907234845282        0.5604595641557195E-01
     3.483450936039912        0.5523651501383988E-01
     3.492994637234542        0.5443635027913830E-01
     3.502538338429172        0.5364534628103337E-01
     3.512082039623801        0.5286338821244616E-01
     3.521625740818431        0.5209036238305109E-01
     3.531169442013061        0.5132615621250450E-01
     3.540713143207691        0.5057065822351187E-01
     3.550256844402321        0.4982375803474362E-01
     3.559800545596951        0.4908534635360751E-01
     3.569344246791581        0.4835531496888650E-01
     3.578887947986211        0.4763355674325055E-01
     3.588431649180841        0.4691996560564882E-01
     3.597975350375471        0.4621443654359168E-01
     3.607519051570101        0.4551686559532822E-01
     3.617062752764730        0.4482714984192702E-01
     3.626606453959360        0.4414518739926677E-01
     3.636150155153990        0.4347087740994345E-01
     3.645693856348620        0.4280412003509934E-01
     3.655237557543250        0.4214481644618156E-01
     3.664781258737880        0.4149286881663367E-01
     3.674324959932510        0.4084818031352834E-01
     3.683868661127140        0.4021065508914456E-01
     3.693412362321769        0.3958019827249462E-01
     3.702956063516400        0.3895671596080759E-01
     3.712499764711029        0.3834011521097166E-01
     3.722043465905659        0.3773030403094110E-01
     3.731587167100289        0.3712719137111299E-01
     3.741130868294919        0.3653068711567515E-01
     3.750674569489549        0.3594070207393286E-01
     3.760218270684179        0.3535714797161609E-01
     3.769761971878809        0.3477993744216974E-01
     3.779305673073439        0.3420898401803439E-01
     3.788849374268068        0.3364420212191694E-01
     3.798393075462698        0.3308550705805620E-01
     3.807936776657328        0.3253281500348668E-01
     3.817480477851958        0.3198604299930322E-01
     3.827024179046588        0.3144510894192872E-01
     3.836567880241218        0.3090993157438896E-01
     3.846111581435848        0.3038043047759573E-01
     3.855655282630478        0.2985652606164213E-01
     3.865198983825108        0.2933813955711083E-01
     3.874742685019738        0.2882519300639911E-01
     3.884286386214368        0.2831760925506213E-01
     3.893830087408997        0.2781531194317584E-01
     3.903373788603627        0.2731822549672247E-01
     3.912917489798257        0.2682627511900095E-01
     3.922461190992887        0.2633938678206141E-01
     3.932004892187517        0.2585748721816897E-01
     3.941548593382147        0.2538050391129551E-01
     3.951092294576777        0.2490836508864278E-01
     3.960635995771407        0.2444099971219715E-01
     3.970179696966036        0.2397833747031780E-01
     3.979723398160667        0.2352030876936014E-01
     3.989267099355296        0.2306684472533447E-01
     3.998810800549926        0.2261787715560162E-01
     4.008354501744556        0.2217333857060815E-01
     4.017898202939186        0.2173316216565838E-01
     4.027441904133816        0.2129728181272845E-01
     4.036985605328446        0.2086563205232045E-01
     4.046529306523076        0.2043814808535840E-01
     4.056073007717705        0.2001476576512703E-01
     4.065616708912335        0.1959542158925339E-01
     4.075160410106966        0.1918005269173331E-01
     4.084704111301595        0.1876859683500123E-01
     4.094247812496225        0.1836099240204588E-01
     4.103791513690855        0.1795717838857206E-01
     4.113335214885485        0.1755709439520735E-01
     4.122878916080115        0.1716068061975620E-01
     4.132422617274745        0.1676787784950120E-01
     4.141966318469374        0.1637862745355093E-01
     4.151510019664005        0.1599287137523569E-01
     4.161053720858634        0.1561055212455194E-01
     4.170597422053264        0.1523161277065338E-01
     4.180141123247894        0.1485599693439178E-01
     4.189684824442524        0.1448364878090600E-01
     4.199228525637154        0.1411451301225889E-01
     4.208772226831784        0.1374853486012419E-01
     4.218315928026414        0.1338566007852153E-01
     4.227859629221044        0.1302583493660052E-01
     4.237403330415674        0.1266900621147401E-01
     4.246947031610303        0.1231512118110017E-01
     4.256490732804934        0.1196412761721374E-01
     4.266034433999563        0.1161597377830579E-01
     4.275578135194193        0.1127060840265273E-01
     4.285121836388823        0.1092798070139355E-01
     4.294665537583453        0.1058804035165686E-01
     4.304209238778083        0.1025073748973443E-01
     4.313752939972713        0.9916022704305985E-02
     4.323296641167342        0.9583847031439637E-02
     4.332840342361973        0.9254162046134698E-02
     4.342384043556603        0.8926921050929055E-02
     4.351927744751232        0.8602084319574609E-02
     4.361471445945862        0.8279630555533986E-02
     4.371015147140493        0.7959572323605082E-02
     4.380558848335122        0.7641970648613138E-02
     4.390102549529752        0.7326945045524774E-02
     4.399646250724381        0.7014677608760917E-02
     4.409189951919012        0.6705411589851063E-02
     4.418733653113642        0.6399445743234179E-02
     4.428277354308271        0.6097125889361690E-02
     4.437821055502901        0.5798834970407754E-02
     4.447364756697532        0.5504982584072131E-02
     4.456908457892161        0.5215994691782492E-02
     4.466452159086791        0.4932303955450670E-02
     4.475995860281421        0.4654340972049013E-02
     4.485539561476051        0.4382526542341609E-02
     4.495083262670681        0.4117265018913950E-02
     4.504626963865310        0.3858938718815980E-02
     4.514170665059940        0.3607903348850142E-02
     4.523714366254571        0.3364484369983678E-02
     4.533258067449200        0.3128974216451785E-02
     4.542801768643830        0.2901630281243065E-02
     4.552345469838460        0.2682673580256154E-02
     4.561889171033090        0.2472288010747239E-02
     4.571432872227720        0.2270620124540049E-02
     4.580976573422350        0.2077779342045962E-02
     4.590520274616980        0.1893838538875729E-02
     4.600063975811610        0.1718834942336967E-02
     4.609607677006239        0.1552771280096300E-02
     4.619151378200869        0.1395617127473986E-02
     4.628695079395500        0.1247310402913731E-02
     4.638238780590129        0.1107758962683195E-02
     4.647782481784759        0.9768422450878054E-03
     4.657326182979389        0.8544129101633504E-03
     4.666869884174019        0.7402984106493292E-03
     4.676413585368649        0.6343024096472633E-03
     4.685957286563279        0.5362059209365015E-03
     4.695500987757908        0.4457679708185039E-03
     4.705044688952539        0.3627254232713254E-03
     4.714588390147169        0.2867912686492868E-03
     4.724132091341798        0.2176498630608971E-03
     4.733675792536428        0.1549454129422609E-03
     4.743219493731058        0.9825293167010865E-04
     4.752763194925688        0.4699068817431684E-04
     4.762306896120318         0.000000000000000    
  0  5  2  0  0.000000   #orbital l, n, z, is_polarized, population
 500    0.6539883786801105E-02     3.263402009613751     # npts, delta, cutoff
     0.000000000000000       -0.3550131846514327    
    0.6539883786801105E-02   -0.3549370969133770    
    0.1307976757360221E-01   -0.3547027148047596    
    0.1961965136040331E-01   -0.3543122134741471    
    0.2615953514720442E-01   -0.3537657999601389    
    0.3269941893400553E-01   -0.3530637628415808    
    0.3923930272080663E-01   -0.3522064724314881    
    0.4577918650760773E-01   -0.3511943804279342    
    0.5231907029440884E-01   -0.3500280194159301    
    0.5885895408120995E-01   -0.3487080022648533    
    0.6539883786801105E-01   -0.3472350214311544    
    0.7193872165481216E-01   -0.3456098481698752    
    0.7847860544161325E-01   -0.3438333316570565    
    0.8501848922841436E-01   -0.3419063980247742    
    0.9155837301521547E-01   -0.3398300493105070    
    0.9809825680201657E-01   -0.3376053623226023    
    0.1046381405888177       -0.3352334874237166    
    0.1111780243756188       -0.3327156472342183    
    0.1177179081624199       -0.3300531352576597    
    0.1242577919492210       -0.3272473144305487    
    0.1307976757360221       -0.3242996155987627    
    0.1373375595228232       -0.3212115359230652    